 Gaussian 09, Revision E.01,
 Gaussian 09:  ES64L-G09RevE.01 30-Nov-2015

 -----------------------------------------------------
 #p opt b3lyp/6-31g(d) geom=connectivity int=ultrafine
 -----------------------------------------------------

 ---------------------------
 1-hydroxy_anthraquinone opt
 ---------------------------
 Symbolic Z-matrix:
 Charge =  0 Multiplicity = 1

 SCF Done:  E(RB3LYP) =  -763.892403346     A.U. after   18 cycles
 SCF Done:  E(RB3LYP) =  -763.951347949     A.U. after   15 cycles
 SCF Done:  E(RB3LYP) =  -763.968869068     A.U. after   15 cycles
 SCF Done:  E(RB3LYP) =  -763.986960798     A.U. after   13 cycles
 SCF Done:  E(RB3LYP) =  -763.987242469     A.U. after   12 cycles
 SCF Done:  E(RB3LYP) =  -763.987254411     A.U. after    9 cycles
 SCF Done:  E(RB3LYP) =  -763.987255190     A.U. after    9 cycles
 Optimization completed.
    -- Stationary point found.

                         Standard orientation:
 ---------------------------------------------------------------------
 Center     Atomic      Atomic             Coordinates (Angstroms)
 Number     Number       Type             X           Y           Z
 ---------------------------------------------------------------------
      1          6           0        3.969250    0.347508    0.000805
      2          6           0        2.873717    1.204904    0.000284
      3          6           0        1.574236    0.681970   -0.000209
      4          6           0        1.375213   -0.709094   -0.000185
      5          6           0        2.483517   -1.564244    0.000355
      6          6           0        3.772751   -1.039140    0.000851
      7          6           0        0.416501    1.611419   -0.000786
      8          6           0        0.004341   -1.315690   -0.001034
      9          6           0       -1.160009   -0.385238   -0.000374
     10          6           0       -0.958336    1.017037   -0.000243
     11          6           0       -2.032379    1.907511    0.000293
     12          1           0       -1.821622    2.970602    0.000205
     13          6           0       -3.335568    1.416922    0.000826
     14          6           0       -3.562675    0.045809    0.000814
     15          6           0       -2.493520   -0.863475    0.000191
     16          1           0        4.976788    0.754129    0.001172
     17          1           0        2.995336    2.283038    0.000192
     18          1           0        2.306152   -2.634391    0.000317
     19          1           0        4.628843   -1.708344    0.001299
     20          1           0       -4.179403    2.101051    0.001315
     21          1           0       -4.580955   -0.339847    0.001264
     22          8           0       -0.119900   -2.534058   -0.001040
     23          8           0        0.575547    2.827976   -0.001048
     24          8           0       -2.730174   -2.197092    0.000099
     25          1           0       -3.691162   -2.338033    0.000612
 ---------------------------------------------------------------------

 The electronic state is 1-A.
 Alpha  occ. eigenvalues --  -19.19501 -19.14270 -19.13519 -10.28158 -10.27900
 Alpha  occ. eigenvalues --  -10.27713 -10.21612 -10.21532 -10.21510 -10.21331
 Alpha  occ. eigenvalues --  -10.20977 -10.20912 -10.20763 -10.20691 -10.20358
 Alpha  occ. eigenvalues --  -10.20169 -10.20063  -1.08075  -1.04129  -1.03445
 Alpha  occ. eigenvalues --   -0.87858  -0.86751  -0.80095  -0.76422  -0.76153
 Alpha  occ. eigenvalues --   -0.76033  -0.67688  -0.66149  -0.63779  -0.61319
 Alpha  occ. eigenvalues --   -0.58266  -0.56316  -0.54891  -0.51174  -0.49181
 Alpha  occ. eigenvalues --   -0.48461  -0.47446  -0.47163  -0.44363  -0.43826
 Alpha  occ. eigenvalues --   -0.43520  -0.43022  -0.42652  -0.41355  -0.40046
 Alpha  occ. eigenvalues --   -0.39203  -0.38582  -0.37339  -0.36403  -0.36329
 Alpha  occ. eigenvalues --   -0.35443  -0.34282  -0.27417  -0.26456  -0.26222
 Alpha  occ. eigenvalues --   -0.26215  -0.24622  -0.24007
 Alpha virt. eigenvalues --   -0.09751  -0.04897  -0.02147  -0.00257   0.05527
 Alpha virt. eigenvalues --    0.05689   0.06360   0.08925   0.10103   0.14524
 Alpha virt. eigenvalues --    0.14859   0.15146   0.16377   0.18136   0.18491

 Mulliken charges:
               1
     1  C   -0.127561
     2  C   -0.170238
     3  C    0.048982
     4  C    0.047267
     5  C   -0.175207
     6  C   -0.123582
     7  C    0.341859
     8  C    0.354551
     9  C    0.029059
    10  C    0.022362
    11  C   -0.175743
    12  H    0.168095
    13  C   -0.128496
    14  C   -0.183990
    15  C    0.301067
    16  H    0.143392
    17  H    0.166330
    18  H    0.168737
    19  H    0.143704
    20  H    0.147611
    21  H    0.129952
    22  O   -0.461865
    23  O   -0.480084
    24  O   -0.596254
    25  H    0.410052
 Sum of Mulliken charges =  -0.00000

 Dipole moment (field-independent basis, Debye):
    X=             -1.8218    Y=             -0.0579    Z=              0.0034  Tot=              1.8227
 Quadrupole moment (field-independent basis, Debye-Ang):
   XX=            -62.1467   YY=           -104.4683   ZZ=            -96.7554
   XY=             -0.7456   XZ=             -0.0030   YZ=             -0.0013

 Normal termination of Gaussian 09 at Sun May 30 22:08:54 2021.
