 Gaussian 09, Revision E.01,
 Gaussian 09:  ES64L-G09RevE.01 30-Nov-2015

 -------------------------------------------------------------
 #p td(NStates=10) b3lyp/6-31+g(d) nosymm density=SCF pop=full
 -------------------------------------------------------------

 --------------------------
 1_hydroxy_anthraquinone TD
 --------------------------
 Symbolic Z-matrix:
 Charge =  0 Multiplicity = 1

                          Input orientation:
 ---------------------------------------------------------------------
 Center     Atomic      Atomic             Coordinates (Angstroms)
 Number     Number       Type             X           Y           Z
 ---------------------------------------------------------------------
      1          6           0        3.969250    0.347508    0.000805
      2          6           0        2.873718    1.204904    0.000284
      3          6           0        1.574237    0.681970   -0.000209
      4          6           0        1.375213   -0.709094   -0.000185
      5          6           0        2.483517   -1.564244    0.000355
      6          6           0        3.772751   -1.039140    0.000851
      7          6           0        0.416501    1.611419   -0.000786
      8          6           0        0.004341   -1.315690   -0.001034
      9          6           0       -1.160009   -0.385238   -0.000374
     10          6           0       -0.958336    1.017037   -0.000243
     11          6           0       -2.032379    1.907511    0.000293
     12          1           0       -1.821623    2.970602    0.000205
     13          6           0       -3.335568    1.416922    0.000826
     14          6           0       -3.562675    0.045809    0.000814
     15          6           0       -2.493520   -0.863475    0.000191
     16          1           0        4.976789    0.754129    0.001172
     17          1           0        2.995336    2.283039    0.000192
     18          1           0        2.306152   -2.634391    0.000317
     19          1           0        4.628843   -1.708344    0.001299
     20          1           0       -4.179404    2.101051    0.001315
     21          1           0       -4.580955   -0.339847    0.001264
     22          8           0       -0.119900   -2.534058   -0.001040
     23          8           0        0.575547    2.827977   -0.001048
     24          8           0       -2.730174   -2.197092    0.000099
     25          1           0       -3.691162   -2.338034    0.000612
 ---------------------------------------------------------------------

 SCF Done:  E(RB3LYP) =  -764.015575058     A.U. after   15 cycles

 Excitation energies and oscillator strengths:

 Excited state symmetry could not be determined.
 Excited State   1:      Singlet-?Sym    2.8303 eV  438.06 nm  f=0.0000  <S**2>=0.000
      57 -> 59         0.69146
 This state for optimization and/or second-order correction.
 Total Energy, E(TD-HF/TD-KS) =  -763.911562900
 Copying the excited state density for this state as the 1-particle RhoCI density.

 Excited state symmetry could not be determined.
 Excited State   2:      Singlet-?Sym    3.1837 eV  389.44 nm  f=0.0000  <S**2>=0.000
      55 -> 59         0.68506
      57 -> 60        -0.13236

 Excited state symmetry could not be determined.
 Excited State   3:      Singlet-?Sym    3.3194 eV  373.51 nm  f=0.0984  <S**2>=0.000
      58 -> 59         0.69156

 Excited state symmetry could not be determined.
 Excited State   4:      Singlet-?Sym    3.7548 eV  330.20 nm  f=0.0048  <S**2>=0.000
      53 -> 59        -0.14742
      54 -> 59         0.65255
      56 -> 59         0.18525

 Excited state symmetry could not be determined.
 Excited State   5:      Singlet-?Sym    3.8108 eV  325.35 nm  f=0.0529  <S**2>=0.000
      54 -> 59        -0.19071
      54 -> 60         0.12835
      56 -> 59         0.65888

 Excited state symmetry could not be determined.
 Excited State   6:      Singlet-?Sym    4.3366 eV  285.90 nm  f=0.0000  <S**2>=0.000
      55 -> 59         0.12779
      57 -> 59         0.11333
      57 -> 60         0.68016

 Excited state symmetry could not be determined.
 Excited State   7:      Singlet-?Sym    4.5297 eV  273.71 nm  f=0.1450  <S**2>=0.000
      53 -> 59         0.65117
      54 -> 59         0.15282
      54 -> 61         0.11624
      58 -> 60         0.15239

 Excited state symmetry could not be determined.
 Excited State   8:      Singlet-?Sym    4.6078 eV  269.08 nm  f=0.0431  <S**2>=0.000
      53 -> 59        -0.14970
      58 -> 60         0.67697

 Excited state symmetry could not be determined.
 Excited State   9:      Singlet-?Sym    4.8005 eV  258.27 nm  f=0.0000  <S**2>=0.000
      55 -> 60         0.68869

 Excited state symmetry could not be determined.
 Excited State  10:      Singlet-?Sym    5.0695 eV  244.57 nm  f=0.1420  <S**2>=0.000
      53 -> 60        -0.17428
      54 -> 60         0.46850
      56 -> 61        -0.16138
      58 -> 61         0.44178

 Alpha  occ. eigenvalues --  -19.20949 -19.15674 -19.14947 -10.29404 -10.29146
 Alpha  occ. eigenvalues --  -10.28865 -10.22816 -10.22726 -10.22612 -10.22443
 Alpha  occ. eigenvalues --  -10.22146 -10.22080 -10.21789 -10.21714 -10.21391
 Alpha  occ. eigenvalues --  -10.21204 -10.21154  -1.09415  -1.05545  -1.04872
 Alpha  occ. eigenvalues --   -0.89078  -0.87931  -0.81271  -0.77569  -0.77298
 Alpha  occ. eigenvalues --   -0.77192  -0.68870  -0.67287  -0.64908  -0.62447
 Alpha  occ. eigenvalues --   -0.59400  -0.57423  -0.56009  -0.52313  -0.50389
 Alpha  occ. eigenvalues --   -0.49514  -0.48581  -0.48255  -0.45574  -0.44816
 Alpha  occ. eigenvalues --   -0.44671  -0.44305  -0.43833  -0.42587  -0.41209
 Alpha  occ. eigenvalues --   -0.40458  -0.39679  -0.38493  -0.37532  -0.37477
 Alpha  occ. eigenvalues --   -0.36497  -0.35489  -0.28667  -0.27593  -0.27575
 Alpha  occ. eigenvalues --   -0.27317  -0.25966  -0.25237
 Alpha virt. eigenvalues --   -0.11140  -0.06506  -0.03667  -0.01854  -0.01539
 Alpha virt. eigenvalues --    0.00577   0.00882   0.02286   0.02734   0.03420
 Alpha virt. eigenvalues --    0.04052   0.04283   0.04832   0.04884   0.05496

 Mulliken charges:
               1
     1  C   -0.401593
     2  C   -0.129249
     3  C    0.194859
     4  C    0.255805
     5  C   -0.057501
     6  C   -0.379164
     7  C    0.024401
     8  C    0.258885
     9  C    0.532377
    10  C    0.059740
    11  C   -0.174714
    12  H    0.225802
    13  C   -0.574991
    14  C   -0.347763
    15  C    0.367764
    16  H    0.191006
    17  H    0.225430
    18  H    0.226898
    19  H    0.191379
    20  H    0.195022
    21  H    0.171302
    22  O   -0.463253
    23  O   -0.482730
    24  O   -0.619768
    25  H    0.510055
 Sum of Mulliken charges =  -0.00000

 Dipole moment (field-independent basis, Debye):
    X=             -1.8170    Y=              0.0646    Z=              0.0037  Tot=              1.8182
 Quadrupole moment (field-independent basis, Debye-Ang):
   XX=            -63.2493   YY=           -108.6462   ZZ=            -99.9536
   XY=             -1.5140   XZ=             -0.0031   YZ=             -0.0012

 Normal termination of Gaussian 09 at Mon May 31 15:38:17 2021.
