 Gaussian 09, Revision E.01,
 Gaussian 09:  ES64L-G09RevE.01 30-Nov-2015

 ---------------------------------------------------
 #p opt b3lyp/6-31g(d,p) geom=connectivity SCF=tight
 ---------------------------------------------------

 -------------------
 Title Card Required
 -------------------
 Symbolic Z-matrix:
 Charge =  1 Multiplicity = 1

 SCF Done:  E(RB3LYP) =  -539.836130309     A.U. after   17 cycles
 SCF Done:  E(RB3LYP) =  -539.874148471     A.U. after   13 cycles
 SCF Done:  E(RB3LYP) =  -539.886207733     A.U. after   15 cycles
 SCF Done:  E(RB3LYP) =  -539.904708778     A.U. after   13 cycles
 SCF Done:  E(RB3LYP) =  -539.907761362     A.U. after   12 cycles
 SCF Done:  E(RB3LYP) =  -539.908389044     A.U. after   12 cycles
 SCF Done:  E(RB3LYP) =  -539.908938661     A.U. after   12 cycles
 SCF Done:  E(RB3LYP) =  -539.909643921     A.U. after   12 cycles
 SCF Done:  E(RB3LYP) =  -539.909554585     A.U. after   12 cycles
 SCF Done:  E(RB3LYP) =  -539.909874891     A.U. after   12 cycles
 SCF Done:  E(RB3LYP) =  -539.910476636     A.U. after    9 cycles
 SCF Done:  E(RB3LYP) =  -539.910535957     A.U. after   11 cycles
 SCF Done:  E(RB3LYP) =  -539.910576956     A.U. after   11 cycles
 SCF Done:  E(RB3LYP) =  -539.910605250     A.U. after   10 cycles
 SCF Done:  E(RB3LYP) =  -539.910620654     A.U. after   10 cycles
 SCF Done:  E(RB3LYP) =  -539.910630044     A.U. after   11 cycles
 SCF Done:  E(RB3LYP) =  -539.910633535     A.U. after    9 cycles
 SCF Done:  E(RB3LYP) =  -539.910637472     A.U. after    9 cycles
 SCF Done:  E(RB3LYP) =  -539.910638039     A.U. after    7 cycles
 SCF Done:  E(RB3LYP) =  -539.910638145     A.U. after    6 cycles
 Optimization completed.
    -- Stationary point found.

                         Standard orientation:
 ---------------------------------------------------------------------
 Center     Atomic      Atomic             Coordinates (Angstroms)
 Number     Number       Type             X           Y           Z
 ---------------------------------------------------------------------
      1          6           0       -1.220000   -0.334998    0.000135
      2          1           0       -1.186391   -1.425542    0.000301
      3          6           0        0.000011    0.337826   -0.000114
      4          1           0        0.000015    1.425882   -0.000203
      5          6           0        1.220029   -0.334999   -0.000234
      6          1           0        1.186423   -1.425544   -0.000122
      7          6           0        2.481339    0.267631   -0.000318
      8          1           0        2.547185    1.350660   -0.000158
      9          6           0       -2.481316    0.267640    0.000185
     10          1           0       -2.547142    1.350668   -0.000210
     11          6           0       -3.636233   -0.507620    0.000214
     12          1           0       -3.534384   -1.590362   -0.000764
     13          7           0        4.892266   -0.064668   -0.000982
     14          6           0        3.636239   -0.507633   -0.000211
     15          1           0        3.534392   -1.590375    0.000578
     16          7           0       -4.892286   -0.064665    0.001109
     17          6           0       -6.028938   -0.986063   -0.002476
     18          1           0       -6.643609   -0.824904   -0.893662
     19          1           0       -5.670816   -2.016006   -0.002638
     20          1           0       -6.647712   -0.826526    0.886113
     21          6           0       -5.189094    1.369678    0.002247
     22          1           0       -4.766199    1.849488    0.890415
     23          1           0       -4.779341    1.848765   -0.892568
     24          1           0       -6.269410    1.508823    0.010295
     25          6           0        5.189049    1.369685   -0.002125
     26          1           0        4.767405    1.849262   -0.891014
     27          1           0        4.778010    1.848945    0.892000
     28          1           0        6.269376    1.508840   -0.008666
     29          6           0        6.028945   -0.986049    0.002541
     30          1           0        6.647348   -0.826916   -0.886384
     31          1           0        6.643962   -0.824425    0.893395
     32          1           0        5.670837   -2.015991    0.003351
 ---------------------------------------------------------------------

 The electronic state is 1-A.
 Alpha  occ. eigenvalues --  -14.51536 -14.51536 -10.37004 -10.37004 -10.34110
 Alpha  occ. eigenvalues --  -10.34109 -10.33938 -10.33938 -10.33022 -10.33021
 Alpha  occ. eigenvalues --  -10.30553 -10.30553 -10.30072  -1.09506  -1.09503
 Alpha  occ. eigenvalues --   -0.94631  -0.91868  -0.87845  -0.85309  -0.85308
 Alpha  occ. eigenvalues --   -0.83852  -0.79645  -0.73753  -0.69296  -0.68286
 Alpha  occ. eigenvalues --   -0.68140  -0.64078  -0.63145  -0.61289  -0.60776
 Alpha  occ. eigenvalues --   -0.59451  -0.59447  -0.56218  -0.55029  -0.53055
 Alpha  occ. eigenvalues --   -0.52887  -0.52873  -0.52871  -0.51335  -0.51052
 Alpha  occ. eigenvalues --   -0.50728  -0.50648  -0.48925  -0.47597  -0.47436
 Alpha  occ. eigenvalues --   -0.45908  -0.42548  -0.37451  -0.30438
 Alpha virt. eigenvalues --   -0.19846  -0.11157  -0.04859  -0.03336  -0.02692
 Alpha virt. eigenvalues --   -0.02061  -0.01690  -0.00937   0.00848   0.01138
 Alpha virt. eigenvalues --    0.01873   0.02426   0.02731   0.03628   0.03893

 Mulliken charges:
               1
     1  C   -0.038539
     2  H    0.104784
     3  C   -0.106082
     4  H    0.100279
     5  C   -0.038540
     6  H    0.104783
     7  C   -0.127614
     8  H    0.108501
     9  C   -0.127610
    10  H    0.108500
    11  C    0.170060
    12  H    0.136125
    13  N   -0.389863
    14  C    0.170069
    15  H    0.136127
    16  N   -0.389863
    17  C   -0.195541
    18  H    0.159372
    19  H    0.146179
    20  H    0.159324
    21  C   -0.199066
    22  H    0.157969
    23  H    0.158093
    24  H    0.153106
    25  C   -0.199067
    26  H    0.157987
    27  H    0.158080
    28  H    0.153107
    29  C   -0.195541
    30  H    0.159334
    31  H    0.159367
    32  H    0.146181
 Sum of Mulliken charges =   1.00000

 Dipole moment (field-independent basis, Debye):
    X=              0.0004    Y=             -0.6610    Z=              0.0000  Tot=              0.6610
 Quadrupole moment (field-independent basis, Debye-Ang):
   XX=             50.9345   YY=            -64.2085   ZZ=            -81.4912
   XY=              0.0000   XZ=              0.0201   YZ=             -0.0002

 Normal termination of Gaussian 09 at Tue Jun  8 23:16:42 2021.
