 Gaussian 09, Revision E.01,
 Gaussian 09:  ES64L-G09RevE.01 30-Nov-2015

 ---------------------------------------------------
 #p opt b3lyp/6-31g(d,p) geom=connectivity scf=tight
 ---------------------------------------------------

 ---
 opt
 ---
 Symbolic Z-matrix:
 Charge =  1 Multiplicity = 1

 SCF Done:  E(RB3LYP) =  -772.052532795     A.U. after   17 cycles
 SCF Done:  E(RB3LYP) =  -772.099575201     A.U. after   13 cycles
 SCF Done:  E(RB3LYP) =  -772.132157432     A.U. after   16 cycles
 SCF Done:  E(RB3LYP) =  -772.144430477     A.U. after   13 cycles
 SCF Done:  E(RB3LYP) =  -772.147491373     A.U. after   12 cycles
 SCF Done:  E(RB3LYP) =  -772.148625420     A.U. after   13 cycles
 SCF Done:  E(RB3LYP) =  -772.145385873     A.U. after   17 cycles
 SCF Done:  E(RB3LYP) =  -772.148814536     A.U. after   12 cycles
 SCF Done:  E(RB3LYP) =  -772.149061252     A.U. after   11 cycles
 SCF Done:  E(RB3LYP) =  -772.148533518     A.U. after   12 cycles
 SCF Done:  E(RB3LYP) =  -772.149376429     A.U. after    9 cycles
 SCF Done:  E(RB3LYP) =  -772.149385892     A.U. after    9 cycles
 SCF Done:  E(RB3LYP) =  -772.149395507     A.U. after   10 cycles
 SCF Done:  E(RB3LYP) =  -772.149397920     A.U. after   10 cycles
 SCF Done:  E(RB3LYP) =  -772.149411679     A.U. after   10 cycles
 SCF Done:  E(RB3LYP) =  -772.149423433     A.U. after   10 cycles
 SCF Done:  E(RB3LYP) =  -772.149426720     A.U. after    9 cycles
 SCF Done:  E(RB3LYP) =  -772.149427451     A.U. after    9 cycles
 SCF Done:  E(RB3LYP) =  -772.149427596     A.U. after    7 cycles
 SCF Done:  E(RB3LYP) =  -772.149427614     A.U. after    6 cycles
 Optimization completed.
    -- Stationary point found.

                         Standard orientation:
 ---------------------------------------------------------------------
 Center     Atomic      Atomic             Coordinates (Angstroms)
 Number     Number       Type             X           Y           Z
 ---------------------------------------------------------------------
      1          6           0       -4.891719   -0.287170    0.000103
      2          1           0       -4.799153   -1.374239    0.001039
      3          6           0       -3.716680    0.450349   -0.000444
      4          1           0       -3.779926    1.537110   -0.001310
      5          6           0       -2.448693   -0.143894    0.000108
      6          1           0       -2.406497   -1.233917    0.000992
      7          6           0       -6.190778    0.247229   -0.000363
      8          1           0       -6.310783    1.325916   -0.001280
      9          6           0       -7.301345   -0.580827    0.000350
     10          1           0       -7.147622   -1.657336    0.001258
     11          7           0       -8.584769   -0.200300    0.000003
     12          6           0       -1.239136    0.544699   -0.000355
     13          1           0       -1.259329    1.633214   -0.001205
     14          6           0        0.000018   -0.098302    0.000235
     15          1           0        0.000018   -1.189053    0.001086
     16          6           0        1.239158    0.544712   -0.000173
     17          1           0        1.259355    1.633226   -0.000999
     18          6           0        2.448722   -0.143872    0.000428
     19          1           0        2.406521   -1.233894    0.001248
     20          6           0        3.716696    0.450376    0.000086
     21          1           0        3.779958    1.537135   -0.000704
     22          6           0        4.891736   -0.287154    0.000729
     23          1           0        4.799150   -1.374221    0.001594
     24          6           0        6.190793    0.247223    0.000255
     25          1           0        6.310848    1.325904   -0.000851
     26          7           0        8.584751   -0.200318    0.001507
     27          6           0        7.301346   -0.580859    0.000726
     28          1           0        7.147624   -1.657365    0.000591
     29          6           0        9.670742   -1.176795   -0.003315
     30          1           0       10.293709   -1.053204   -0.895548
     31          1           0       10.301012   -1.053306    0.883710
     32          1           0        9.259091   -2.186814   -0.001719
     33          6           0        8.947726    1.215575    0.001543
     34          1           0        8.561730    1.715143   -0.893469
     35          1           0        8.546477    1.718177    0.887948
     36          1           0       10.033559    1.305828    0.010884
     37          6           0       -9.670741   -1.176809    0.000967
     38          1           0      -10.297495   -1.054023   -0.888681
     39          1           0       -9.259046   -2.186812    0.001726
     40          1           0      -10.297232   -1.052555    0.890595
     41          6           0       -8.947806    1.215570   -0.001303
     42          1           0       -8.554369    1.717456    0.889078
     43          1           0       -8.554018    1.715893   -0.892408
     44          1           0      -10.033687    1.305764   -0.001603
 ---------------------------------------------------------------------

 The electronic state is 1-A.
 Alpha  occ. eigenvalues --  -14.48896 -14.48895 -10.34327 -10.34327 -10.32210
 Alpha  occ. eigenvalues --  -10.32209 -10.31955 -10.31955 -10.30172 -10.30172
 Alpha  occ. eigenvalues --  -10.29580 -10.29580 -10.29496 -10.28125 -10.28125
 Alpha  occ. eigenvalues --  -10.27686 -10.27685 -10.27684 -10.27684  -1.07012
 Alpha  occ. eigenvalues --   -1.07011  -0.92407  -0.91600  -0.90027  -0.87879
 Alpha  occ. eigenvalues --   -0.85400  -0.83269  -0.83268  -0.82772  -0.79947
 Alpha  occ. eigenvalues --   -0.77025  -0.73369  -0.69354  -0.66794  -0.66151
 Alpha  occ. eigenvalues --   -0.65853  -0.64598  -0.64422  -0.61256  -0.60579
 Alpha  occ. eigenvalues --   -0.59780  -0.58951  -0.57310  -0.57310  -0.55889
 Alpha  occ. eigenvalues --   -0.55663  -0.53201  -0.52487  -0.51067  -0.50921
 Alpha  occ. eigenvalues --   -0.50921  -0.50833  -0.49723  -0.49390  -0.49037
 Alpha  occ. eigenvalues --   -0.48966  -0.47891  -0.46652  -0.46352  -0.45523
 Alpha  occ. eigenvalues --   -0.44921  -0.44774  -0.44458  -0.44386  -0.43063
 Alpha  occ. eigenvalues --   -0.41036  -0.38350  -0.34929  -0.30765  -0.26092
 Alpha virt. eigenvalues --   -0.19059  -0.13217  -0.08170  -0.03966  -0.01055
 Alpha virt. eigenvalues --   -0.00959  -0.00932  -0.00131   0.00251   0.00894
 Alpha virt. eigenvalues --    0.01592   0.01766   0.03048   0.03138   0.03496

 Mulliken charges:
               1
     1  C   -0.045248
     2  H    0.097337
     3  C   -0.097523
     4  H    0.094779
     5  C   -0.052633
     6  H    0.097788
     7  C   -0.126877
     8  H    0.100884
     9  C    0.160048
    10  H    0.127568
    11  N   -0.394550
    12  C   -0.089707
    13  H    0.096823
    14  C   -0.053447
    15  H    0.098436
    16  C   -0.089706
    17  H    0.096823
    18  C   -0.052631
    19  H    0.097788
    20  C   -0.097520
    21  H    0.094780
    22  C   -0.045250
    23  H    0.097337
    24  C   -0.126884
    25  H    0.100885
    26  N   -0.394550
    27  C    0.160059
    28  H    0.127571
    29  C   -0.190770
    30  H    0.151516
    31  H    0.151458
    32  H    0.141382
    33  C   -0.194275
    34  H    0.152032
    35  H    0.151993
    36  H    0.145477
    37  C   -0.190769
    38  H    0.151484
    39  H    0.141378
    40  H    0.151489
    41  C   -0.194276
    42  H    0.152012
    43  H    0.152011
    44  H    0.145478
 Sum of Mulliken charges =   1.00000

 Dipole moment (field-independent basis, Debye):
    X=              0.0007    Y=             -1.2879    Z=             -0.0026  Tot=              1.2879
 Quadrupole moment (field-independent basis, Debye-Ang):
   XX=            211.3293   YY=            -96.0566   ZZ=           -120.2463
   XY=             -0.0003   XZ=             -0.0296   YZ=             -0.0071

 Normal termination of Gaussian 09 at Tue Jun  8 18:51:43 2021.
