 Gaussian 09, Revision E.01,
 Gaussian 09:  ES64L-G09RevE.01 30-Nov-2015

 ---------------------------------------------------
 #p opt b3lyp/6-31g(d,p) geom=connectivity scf=tight
 ---------------------------------------------------

 ---
 opt
 ---
 Symbolic Z-matrix:
 Charge =  1 Multiplicity = 1

 SCF Done:  E(RB3LYP) =  -617.283071578     A.U. after   18 cycles
 SCF Done:  E(RB3LYP) =  -617.314406619     A.U. after   13 cycles
 SCF Done:  E(RB3LYP) =  -617.323366771     A.U. after   13 cycles
 SCF Done:  E(RB3LYP) =  -617.323857873     A.U. after   11 cycles
 SCF Done:  E(RB3LYP) =  -617.323910116     A.U. after   11 cycles
 SCF Done:  E(RB3LYP) =  -617.323852749     A.U. after   11 cycles
 SCF Done:  E(RB3LYP) =  -617.323915038     A.U. after   10 cycles
 SCF Done:  E(RB3LYP) =  -617.323912914     A.U. after    9 cycles
 SCF Done:  E(RB3LYP) =  -617.323916097     A.U. after    9 cycles
 SCF Done:  E(RB3LYP) =  -617.323916270     A.U. after    7 cycles
 SCF Done:  E(RB3LYP) =  -617.323916337     A.U. after    6 cycles
 SCF Done:  E(RB3LYP) =  -617.323916371     A.U. after    6 cycles
 Optimization completed.
    -- Stationary point found.

                         Standard orientation:
 ---------------------------------------------------------------------
 Center     Atomic      Atomic             Coordinates (Angstroms)
 Number     Number       Type             X           Y           Z
 ---------------------------------------------------------------------
      1          6           0       -2.443095   -0.298063   -0.000075
      2          1           0       -2.386304   -1.387580   -0.000227
      3          6           0       -1.240329    0.400718   -0.000022
      4          1           0       -1.265775    1.488737    0.000126
      5          6           0       -0.000026   -0.239958   -0.000152
      6          1           0       -0.000066   -1.330926   -0.000297
      7          6           0       -3.719358    0.278757    0.000048
      8          1           0       -3.805647    1.360481    0.000204
      9          6           0       -4.857885   -0.516439   -0.000032
     10          1           0       -4.736792   -1.597138   -0.000199
     11          7           0       -6.124611   -0.096296    0.000077
     12          6           0        1.240306    0.400660   -0.000104
     13          1           0        1.265807    1.488684    0.000027
     14          6           0        2.443052   -0.298169   -0.000245
     15          1           0        2.386202   -1.387685   -0.000438
     16          6           0        3.719356    0.278612   -0.000216
     17          1           0        3.805688    1.360345    0.000021
     18          7           0        6.124628   -0.096278   -0.000209
     19          6           0        4.857901   -0.516532   -0.000327
     20          1           0        4.736945   -1.597255   -0.000217
     21          6           0        6.445820    1.331578   -0.000087
     22          1           0        6.036611    1.819416   -0.890670
     23          1           0        6.038679    1.818926    0.891737
     24          1           0        7.528454    1.452776   -0.001345
     25          6           0        7.242837   -1.038223    0.000711
     26          1           0        7.864288   -0.891403   -0.888533
     27          1           0        7.862761   -0.891589    0.891066
     28          1           0        6.864819   -2.061149    0.000284
     29          6           0       -7.242774   -1.038340   -0.000053
     30          1           0       -7.863482   -0.891497   -0.889814
     31          1           0       -6.864645   -2.061216   -0.000228
     32          1           0       -7.863446   -0.891787    0.889781
     33          6           0       -6.445859    1.331548    0.000308
     34          1           0       -6.037636    1.819011    0.891558
     35          1           0       -6.037753    1.819277   -0.890850
     36          1           0       -7.528500    1.452701    0.000397
 ---------------------------------------------------------------------

 The electronic state is 1-A.
 Alpha  occ. eigenvalues --  -14.50484 -14.50483 -10.35925 -10.35924 -10.33352
 Alpha  occ. eigenvalues --  -10.33351 -10.33145 -10.33144 -10.31825 -10.31825
 Alpha  occ. eigenvalues --  -10.31331 -10.29580 -10.29580 -10.29068 -10.29067
 Alpha  occ. eigenvalues --   -1.08506  -1.08505  -0.93775  -0.92075  -0.89119
 Alpha  occ. eigenvalues --   -0.85738  -0.84492  -0.84492  -0.82281  -0.78593
 Alpha  occ. eigenvalues --   -0.73687  -0.69014  -0.67891  -0.66975  -0.66471
 Alpha  occ. eigenvalues --   -0.62878  -0.61919  -0.61288  -0.59748  -0.58593
 Alpha  occ. eigenvalues --   -0.58592  -0.55874  -0.55775  -0.52577  -0.52493
 Alpha  occ. eigenvalues --   -0.52094  -0.52093  -0.51821  -0.50811  -0.50232
 Alpha  occ. eigenvalues --   -0.50047  -0.48783  -0.48537  -0.47106  -0.46420
 Alpha  occ. eigenvalues --   -0.46167  -0.45448  -0.43027  -0.39513  -0.34659
 Alpha  occ. eigenvalues --   -0.28610
 Alpha virt. eigenvalues --   -0.19599  -0.12119  -0.06101  -0.02374  -0.02103
 Alpha virt. eigenvalues --   -0.02047  -0.01288  -0.00568  -0.00151   0.01562
 Alpha virt. eigenvalues --    0.01840   0.01992   0.03087   0.03174   0.04061

 Mulliken charges:
               1
     1  C   -0.041512
     2  H    0.102022
     3  C   -0.098888
     4  H    0.098659
     5  C   -0.048134
     6  H    0.101315
     7  C   -0.127109
     8  H    0.105661
     9  C    0.166056
    10  H    0.132800
    11  N   -0.391597
    12  C   -0.098885
    13  H    0.098660
    14  C   -0.041512
    15  H    0.102025
    16  C   -0.127127
    17  H    0.105659
    18  N   -0.391590
    19  C    0.166054
    20  H    0.132802
    21  C   -0.197176
    22  H    0.155702
    23  H    0.155712
    24  H    0.150015
    25  C   -0.193635
    26  H    0.156205
    27  H    0.156216
    28  H    0.144268
    29  C   -0.193632
    30  H    0.156217
    31  H    0.144273
    32  H    0.156217
    33  C   -0.197177
    34  H    0.155710
    35  H    0.155711
    36  H    0.150014
 Sum of Mulliken charges =   1.00000

 Dipole moment (field-independent basis, Debye):
    X=             -0.0010    Y=             -0.8564    Z=              0.0008  Tot=              0.8564
 Quadrupole moment (field-independent basis, Debye-Ang):
   XX=             95.4879   YY=            -74.8734   ZZ=            -94.4179
   XY=              0.0008   XZ=              0.0047   YZ=              0.0009

 Normal termination of Gaussian 09 at Tue Jun  8 20:44:34 2021.
