 Gaussian 09, Revision E.01,
 Gaussian 09:  ES64L-G09RevE.01 30-Nov-2015

 ---------------------------------------------------
 #p opt b3lyp/6-31g(d,p) geom=connectivity SCF=tight
 ---------------------------------------------------

 ---
 opt
 ---
 Symbolic Z-matrix:
 Charge =  1 Multiplicity = 1

 SCF Done:  E(RB3LYP) =  -462.417765659     A.U. after   17 cycles
 SCF Done:  E(RB3LYP) =  -462.449124327     A.U. after   14 cycles
 SCF Done:  E(RB3LYP) =  -462.467224301     A.U. after   15 cycles
 SCF Done:  E(RB3LYP) =  -462.483525714     A.U. after   13 cycles
 SCF Done:  E(RB3LYP) =  -462.492719320     A.U. after   15 cycles
 SCF Done:  E(RB3LYP) =  -462.494462508     A.U. after   12 cycles
 SCF Done:  E(RB3LYP) =  -462.494825631     A.U. after   12 cycles
 SCF Done:  E(RB3LYP) =  -462.495226543     A.U. after   13 cycles
 SCF Done:  E(RB3LYP) =  -462.495995074     A.U. after   12 cycles
 SCF Done:  E(RB3LYP) =  -462.496183865     A.U. after   12 cycles
 SCF Done:  E(RB3LYP) =  -462.496648076     A.U. after   10 cycles
 SCF Done:  E(RB3LYP) =  -462.496707217     A.U. after   10 cycles
 SCF Done:  E(RB3LYP) =  -462.496743869     A.U. after   11 cycles
 SCF Done:  E(RB3LYP) =  -462.496768113     A.U. after   11 cycles
 SCF Done:  E(RB3LYP) =  -462.496772234     A.U. after   10 cycles
 SCF Done:  E(RB3LYP) =  -462.496775883     A.U. after    9 cycles
 SCF Done:  E(RB3LYP) =  -462.496777169     A.U. after    9 cycles
 SCF Done:  E(RB3LYP) =  -462.496777425     A.U. after    7 cycles
 SCF Done:  E(RB3LYP) =  -462.496777586     A.U. after    6 cycles
 SCF Done:  E(RB3LYP) =  -462.496777611     A.U. after    7 cycles
 Optimization completed.
    -- Stationary point found.

                         Standard orientation:
 ---------------------------------------------------------------------
 Center     Atomic      Atomic             Coordinates (Angstroms)
 Number     Number       Type             X           Y           Z
 ---------------------------------------------------------------------
      1          6           0        2.415677   -0.521904    0.000292
      2          1           0        2.337288   -1.606718    0.000684
      3          6           0        1.241529    0.228737   -0.000120
      4          1           0        1.282161    1.312764   -0.000880
      5          6           0        0.000004   -0.406964    0.000330
      6          1           0        0.000006   -1.498073    0.001049
      7          6           0       -1.241532    0.228737   -0.000051
      8          1           0       -1.282143    1.312766   -0.000762
      9          7           0       -3.658177   -0.052085    0.000417
     10          6           0       -2.415683   -0.521914    0.000321
     11          1           0       -2.337314   -1.606730    0.000628
     12          7           0        3.658181   -0.052079    0.000336
     13          6           0        4.816717   -0.948245   -0.000344
     14          1           0        5.428864   -0.771429    0.889200
     15          1           0        4.482790   -1.986163    0.000132
     16          1           0        5.427553   -0.771851   -0.890886
     17          6           0        3.925113    1.389626   -0.000163
     18          1           0        3.501771    1.858247   -0.893816
     19          1           0        3.496426    1.859656    0.890142
     20          1           0        5.002247    1.550713    0.003013
     21          6           0       -3.925107    1.389617    0.000130
     22          1           0       -3.495840    1.859624    0.890162
     23          1           0       -3.502375    1.858278   -0.893795
     24          1           0       -5.002242    1.550702    0.004037
     25          6           0       -4.816713   -0.948229   -0.000633
     26          1           0       -4.482816   -1.986159   -0.000694
     27          1           0       -5.428841   -0.771844    0.889014
     28          1           0       -5.427582   -0.771402   -0.891070
 ---------------------------------------------------------------------

 The electronic state is 1-A.
 Alpha  occ. eigenvalues --  -14.52871 -14.52871 -10.38435 -10.38435 -10.35079
 Alpha  occ. eigenvalues --  -10.35079 -10.34981 -10.34968 -10.34968 -10.31866
 Alpha  occ. eigenvalues --  -10.31865  -1.10806  -1.10782  -0.95470  -0.90772
 Alpha  occ. eigenvalues --   -0.86381  -0.86360  -0.85828  -0.80970  -0.73667
 Alpha  occ. eigenvalues --   -0.70226  -0.69656  -0.65457  -0.64838  -0.62462
 Alpha  occ. eigenvalues --   -0.60595  -0.60574  -0.60534  -0.55708  -0.55012
 Alpha  occ. eigenvalues --   -0.54001  -0.53877  -0.53872  -0.53321  -0.52080
 Alpha  occ. eigenvalues --   -0.52011  -0.51253  -0.49681  -0.48703  -0.46188
 Alpha  occ. eigenvalues --   -0.41114  -0.32943
 Alpha virt. eigenvalues --   -0.19982  -0.09743  -0.04580  -0.04027  -0.03639
 Alpha virt. eigenvalues --   -0.02923  -0.01128  -0.00500   0.00403   0.01430
 Alpha virt. eigenvalues --    0.01444   0.02370   0.02993   0.02996   0.03358

 Mulliken charges:
               1
     1  C    0.175429
     2  H    0.140060
     3  C   -0.133650
     4  H    0.111444
     5  C   -0.028684
     6  H    0.109647
     7  C   -0.133658
     8  H    0.111446
     9  N   -0.388136
    10  C    0.175428
    11  H    0.140062
    12  N   -0.388147
    13  C   -0.197969
    14  H    0.163324
    15  H    0.148577
    16  H    0.163342
    17  C   -0.201386
    18  H    0.160665
    19  H    0.160591
    20  H    0.157240
    21  C   -0.201388
    22  H    0.160583
    23  H    0.160674
    24  H    0.157239
    25  C   -0.197974
    26  H    0.148576
    27  H    0.163325
    28  H    0.163340
 Sum of Mulliken charges =   1.00000

 Dipole moment (field-independent basis, Debye):
    X=             -0.0000    Y=             -0.4889    Z=             -0.0014  Tot=              0.4889
 Quadrupole moment (field-independent basis, Debye-Ang):
   XX=             15.9256   YY=            -53.5202   ZZ=            -68.5519
   XY=              0.0000   XZ=              0.0007   YZ=             -0.0018

 Normal termination of Gaussian 09 at Wed Jun  9 00:25:18 2021.
