 Gaussian 09, Revision E.01,
 Gaussian 09:  ES64L-G09RevE.01 30-Nov-2015

 -------------------------------------------
 #p td(NStates=10) b3lyp/6-31g(d,p) pop=full
 -------------------------------------------

 --
 td
 --
 Symbolic Z-matrix:
 Charge =  1 Multiplicity = 1

                         Standard orientation:
 ---------------------------------------------------------------------
 Center     Atomic      Atomic             Coordinates (Angstroms)
 Number     Number       Type             X           Y           Z
 ---------------------------------------------------------------------
      1          6           0       -0.762617    0.375596   -0.000002
      2          1           0       -0.687845    1.461224   -0.000002
      3          6           0        0.374484   -0.391393    0.000001
      4          1           0        0.347411   -1.475701    0.000011
      5          6           0        1.630982    0.251525   -0.000004
      6          1           0        1.628785    1.341611   -0.000010
      7          6           0        2.856202   -0.392240    0.000000
      8          1           0        2.906127   -1.478242    0.000004
      9          7           0        5.258411   -0.158428    0.000002
     10          1           0        6.076678    0.435588    0.000001
     11          1           0        5.418077   -1.158629    0.000011
     12          6           0        4.040000    0.351056   -0.000001
     13          1           0        3.990142    1.437802   -0.000011
     14          7           0       -2.066502   -0.034873   -0.000001
     15          6           0       -2.490902   -1.400522   -0.000001
     16          6           0       -3.089378    0.995298    0.000001
     17          1           0       -1.659883   -2.119179   -0.000001
     18          8           0       -3.651045   -1.709896   -0.000001
     19          1           0       -4.097839    0.569895    0.000001
     20          8           0       -2.801161    2.160249    0.000004
 ---------------------------------------------------------------------

 SCF Done:  E(RB3LYP) =  -531.873388828     A.U. after   15 cycles

 Excitation energies and oscillator strengths:

 Excited State   1:      Singlet-A      3.3004 eV  375.66 nm  f=0.0000  <S**2>=0.000
      39 -> 41         0.69887
 This state for optimization and/or second-order correction.
 Total Energy, E(TD-HF/TD-KS) =  -531.752099716
 Copying the excited state density for this state as the 1-particle RhoCI density.

 Excited State   2:      Singlet-A      3.8478 eV  322.22 nm  f=1.1885  <S**2>=0.000
      40 -> 41         0.70877
      40 <- 41        -0.12743

 Excited State   3:      Singlet-A      4.1825 eV  296.44 nm  f=0.0003  <S**2>=0.000
      38 -> 41         0.65265
      39 -> 42        -0.24255

 Excited State   4:      Singlet-A      4.7869 eV  259.01 nm  f=0.0008  <S**2>=0.000
      38 -> 41         0.26106
      39 -> 42         0.63818
      39 -> 43        -0.10177

 Excited State   5:      Singlet-A      5.2534 eV  236.01 nm  f=0.0199  <S**2>=0.000
      37 -> 41         0.27292
      40 -> 42         0.64512

 Excited State   6:      Singlet-A      5.4048 eV  229.40 nm  f=0.0779  <S**2>=0.000
      37 -> 41         0.56274
      40 -> 42        -0.27142
      40 -> 43         0.31728

 Excited State   7:      Singlet-A      5.4145 eV  228.99 nm  f=0.0000  <S**2>=0.000
      38 -> 42         0.50466
      38 -> 43        -0.10796
      39 -> 41         0.10154
      39 -> 43        -0.43229
      39 -> 44        -0.15817

 Excited State   8:      Singlet-A      6.0540 eV  204.80 nm  f=0.0000  <S**2>=0.000
      38 -> 42         0.45280
      39 -> 42         0.12711
      39 -> 43         0.52355

 Excited State   9:      Singlet-A      6.0621 eV  204.52 nm  f=0.0135  <S**2>=0.000
      36 -> 41        -0.30478
      37 -> 41        -0.27483
      40 -> 43         0.56279

 Excited State  10:      Singlet-A      6.5645 eV  188.87 nm  f=0.0050  <S**2>=0.000
      36 -> 41         0.61066
      37 -> 41        -0.14156
      40 -> 43         0.25135
      40 -> 44         0.12985

 The electronic state is 1-A.
 Alpha  occ. eigenvalues --  -19.30030 -19.29807 -14.56860 -14.56048 -10.45813
 Alpha  occ. eigenvalues --  -10.44869 -10.44602 -10.42138 -10.39846 -10.36915
 Alpha  occ. eigenvalues --  -10.36667  -1.22307  -1.20335  -1.13566  -1.11523
 Alpha  occ. eigenvalues --   -0.99758  -0.93754  -0.86139  -0.82985  -0.80365
 Alpha  occ. eigenvalues --   -0.76645  -0.72147  -0.71393  -0.68175  -0.67379
 Alpha  occ. eigenvalues --   -0.66038  -0.61060  -0.60899  -0.59629  -0.58431
 Alpha  occ. eigenvalues --   -0.57799  -0.56514  -0.56415  -0.54530  -0.53401
 Alpha  occ. eigenvalues --   -0.51074  -0.46628  -0.44228  -0.40764  -0.39004
 Alpha virt. eigenvalues --   -0.25775  -0.17582  -0.16136  -0.10360  -0.09150
 Alpha virt. eigenvalues --   -0.07836  -0.06784  -0.04767  -0.03270  -0.01579
 Alpha virt. eigenvalues --    0.00124   0.00916   0.03452   0.03859   0.07231

 Mulliken charges:
               1
     1  C    0.167054
     2  H    0.188419
     3  C   -0.105992
     4  H    0.134751
     5  C   -0.019003
     6  H    0.142187
     7  C   -0.107834
     8  H    0.135662
     9  N   -0.532399
    10  H    0.337770
    11  H    0.330163
    12  C    0.189749
    13  H    0.180281
    14  N   -0.513197
    15  C    0.458167
    16  C    0.441262
    17  H    0.127916
    18  O   -0.364722
    19  H    0.186622
    20  O   -0.376858
 Sum of Mulliken charges =   1.00000

 Dipole moment (field-independent basis, Debye):
    X=             12.6696    Y=             -0.9787    Z=              0.0000  Tot=             12.7074
 Quadrupole moment (field-independent basis, Debye-Ang):
   XX=             15.8464   YY=            -57.9262   ZZ=            -63.2648
   XY=             -0.1972   XZ=              0.0001   YZ=             -0.0001

 Normal termination of Gaussian 09 at Mon Jun  7 15:45:01 2021.
