 Gaussian 09, Revision E.01,
 Gaussian 09:  ES64L-G09RevE.01 30-Nov-2015

 -------------------------------------------------
 #p td(NStates=10) b3lyp/6-31+g(d) nosymm pop=full
 -------------------------------------------------

 ------------------------
 1_amino_anthraquinone td
 ------------------------
 Symbolic Z-matrix:
 Charge =  0 Multiplicity = 1

                          Input orientation:
 ---------------------------------------------------------------------
 Center     Atomic      Atomic             Coordinates (Angstroms)
 Number     Number       Type             X           Y           Z
 ---------------------------------------------------------------------
      1          6           0       -3.964687    0.326123   -0.000330
      2          6           0       -2.876758    1.193966   -0.002071
      3          6           0       -1.572553    0.685050   -0.001369
      4          6           0       -1.360962   -0.705047    0.001028
      5          6           0       -2.461205   -1.571172    0.002926
      6          6           0       -3.755534   -1.058326    0.002262
      7          6           0       -0.422165    1.627662   -0.002138
      8          6           0        0.015359   -1.284497    0.000909
      9          6           0        1.158740   -0.363928   -0.003020
     10          6           0        0.954067    1.043223   -0.001090
     11          6           0        2.023973    1.928613    0.002960
     12          1           0        1.819987    2.992967    0.004239
     13          6           0        3.332985    1.428390    0.006282
     14          6           0        3.568681    0.067124    0.003355
     15          6           0        2.498685   -0.863663   -0.003361
     16          1           0       -4.976025    0.723384   -0.000904
     17          1           0       -3.008230    2.271003   -0.003823
     18          1           0       -2.275805   -2.639844    0.004719
     19          1           0       -4.605263   -1.735653    0.003666
     20          1           0        4.174800    2.115747    0.010894
     21          1           0        4.587496   -0.313690    0.004357
     22          8           0        0.146745   -2.519410    0.005223
     23          8           0       -0.598809    2.842071   -0.003038
     24          7           0        2.766414   -2.193782   -0.016817
     25          1           0        3.718406   -2.520796    0.029265
     26          1           0        1.984490   -2.839034    0.009757
 ---------------------------------------------------------------------

 SCF Done:  E(RB3LYP) =  -744.168372831     A.U. after   16 cycles

 Excitation energies and oscillator strengths:

 Excited state symmetry could not be determined.
 Excited State   1:      Singlet-?Sym    2.7140 eV  456.84 nm  f=0.1195  <S**2>=0.000
      58 -> 59         0.70131
 This state for optimization and/or second-order correction.
 Total Energy, E(TD-HF/TD-KS) =  -744.068636173
 Copying the excited state density for this state as the 1-particle RhoCI density.

 Excited state symmetry could not be determined.
 Excited State   2:      Singlet-?Sym    2.9930 eV  414.24 nm  f=0.0001  <S**2>=0.000
      57 -> 59         0.68946

 Excited state symmetry could not be determined.
 Excited State   3:      Singlet-?Sym    3.3197 eV  373.48 nm  f=0.0000  <S**2>=0.000
      54 -> 59         0.68007
      57 -> 60         0.14392

 Excited state symmetry could not be determined.
 Excited State   4:      Singlet-?Sym    3.6641 eV  338.38 nm  f=0.0017  <S**2>=0.000
      55 -> 59         0.65456
      56 -> 59         0.18182
      58 -> 60        -0.17285

 Excited state symmetry could not be determined.
 Excited State   5:      Singlet-?Sym    3.8295 eV  323.76 nm  f=0.0357  <S**2>=0.000
      55 -> 59        -0.21137
      55 -> 60        -0.10599
      56 -> 59         0.64033
      58 -> 60        -0.13717

 Excited state symmetry could not be determined.
 Excited State   6:      Singlet-?Sym    3.9915 eV  310.62 nm  f=0.0531  <S**2>=0.000
      55 -> 59         0.11938
      56 -> 59         0.17590
      58 -> 60         0.66467

 Excited state symmetry could not be determined.
 Excited State   7:      Singlet-?Sym    4.4578 eV  278.13 nm  f=0.1390  <S**2>=0.000
      53 -> 59         0.67875
      55 -> 61        -0.10937

 Excited state symmetry could not be determined.
 Excited State   8:      Singlet-?Sym    4.6063 eV  269.16 nm  f=0.0000  <S**2>=0.000
      54 -> 59        -0.15735
      57 -> 60         0.68458

 Excited state symmetry could not be determined.
 Excited State   9:      Singlet-?Sym    4.6413 eV  267.13 nm  f=0.0049  <S**2>=0.000
      53 -> 60         0.10241
      58 -> 61         0.68488

 Excited state symmetry could not be determined.
 Excited State  10:      Singlet-?Sym    4.9057 eV  252.74 nm  f=0.0000  <S**2>=0.000
      54 -> 60         0.68925
      57 -> 59        -0.11083

 Alpha  occ. eigenvalues --  -19.15380 -19.15156 -14.36539 -10.29120 -10.28895
 Alpha  occ. eigenvalues --  -10.26614 -10.22032 -10.22009 -10.21857 -10.21820
 Alpha  occ. eigenvalues --  -10.21695 -10.21652 -10.21577 -10.21381 -10.21190
 Alpha  occ. eigenvalues --  -10.21141 -10.20264  -1.05143  -1.04928  -0.94810
 Alpha  occ. eigenvalues --   -0.88494  -0.86515  -0.80778  -0.77351  -0.76758
 Alpha  occ. eigenvalues --   -0.75604  -0.68486  -0.66502  -0.64590  -0.61413
 Alpha  occ. eigenvalues --   -0.58543  -0.57406  -0.55466  -0.52993  -0.50661
 Alpha  occ. eigenvalues --   -0.49718  -0.48213  -0.47418  -0.46676  -0.44805
 Alpha  occ. eigenvalues --   -0.44653  -0.44255  -0.43597  -0.42621  -0.40935
 Alpha  occ. eigenvalues --   -0.39774  -0.39462  -0.38646  -0.37176  -0.36686
 Alpha  occ. eigenvalues --   -0.36280  -0.33153  -0.28285  -0.27656  -0.27214
 Alpha  occ. eigenvalues --   -0.27195  -0.26423  -0.22502
 Alpha virt. eigenvalues --   -0.10958  -0.06081  -0.03157  -0.01150  -0.00479
 Alpha virt. eigenvalues --    0.00637   0.01360   0.02421   0.02725   0.03762
 Alpha virt. eigenvalues --    0.04415   0.04606   0.04951   0.05024   0.05060

 Mulliken charges:
               1
     1  C   -0.419355
     2  C   -0.185091
     3  C    0.222938
     4  C    0.297596
     5  C    0.030306
     6  C   -0.377539
     7  C    0.029960
     8  C    0.007850
     9  C    1.600548
    10  C   -0.229908
    11  C   -0.358541
    12  H    0.222046
    13  C   -0.511030
    14  C   -0.793005
    15  C    0.361930
    16  H    0.190432
    17  H    0.226036
    18  H    0.224399
    19  H    0.190294
    20  H    0.190494
    21  H    0.176165
    22  O   -0.548823
    23  O   -0.487541
    24  N   -0.954492
    25  H    0.416224
    26  H    0.478107
 Sum of Mulliken charges =  -0.00000

 Dipole moment (field-independent basis, Debye):
    X=              1.4830    Y=             -1.6880    Z=              0.1049  Tot=              2.2494
 Quadrupole moment (field-independent basis, Debye-Ang):
   XX=            -69.3799   YY=           -103.5314   ZZ=           -101.9907
   XY=             -1.0151   XZ=              0.3779   YZ=             -0.2761

 Normal termination of Gaussian 09 at Mon May 31 16:15:32 2021.
