 Gaussian 09, Revision E.01,
 Gaussian 09:  ES64L-G09RevE.01 30-Nov-2015

 -----------------------------------------------------
 #p opt b3lyp/6-31g(d) geom=connectivity int=ultrafine
 -----------------------------------------------------

 -------------------------
 1_amino_anthraquinone opt
 -------------------------
 Symbolic Z-matrix:
 Charge =  0 Multiplicity = 1

 SCF Done:  E(RB3LYP) =  -744.009314888     A.U. after   22 cycles
 SCF Done:  E(RB3LYP) =  -744.067486397     A.U. after   15 cycles
 SCF Done:  E(RB3LYP) =  -744.026189910     A.U. after   15 cycles
 SCF Done:  E(RB3LYP) =  -744.102985940     A.U. after   12 cycles
 SCF Done:  E(RB3LYP) =  -744.107725638     A.U. after   13 cycles
 SCF Done:  E(RB3LYP) =  -744.107962308     A.U. after   11 cycles
 SCF Done:  E(RB3LYP) =  -744.107984149     A.U. after   10 cycles
 SCF Done:  E(RB3LYP) =  -744.108008734     A.U. after   11 cycles
 SCF Done:  E(RB3LYP) =  -743.983112262     A.U. after   16 cycles
 SCF Done:  E(RB3LYP) =  -744.108008776     A.U. after    8 cycles
 SCF Done:  E(RB3LYP) =  -744.140902196     A.U. after   11 cycles
 SCF Done:  E(RB3LYP) =  -744.140910083     A.U. after   10 cycles
 SCF Done:  E(RB3LYP) =  -744.140913114     A.U. after    9 cycles
 SCF Done:  E(RB3LYP) =  -744.140915448     A.U. after    9 cycles
 SCF Done:  E(RB3LYP) =  -744.140916401     A.U. after    9 cycles
 SCF Done:  E(RB3LYP) =  -744.140917155     A.U. after    9 cycles
 SCF Done:  E(RB3LYP) =  -744.140917666     A.U. after    8 cycles
 SCF Done:  E(RB3LYP) =  -744.140918024     A.U. after    8 cycles
 SCF Done:  E(RB3LYP) =  -744.140918124     A.U. after    8 cycles
 SCF Done:  E(RB3LYP) =  -744.140918159     A.U. after    7 cycles
 Optimization completed.
    -- Stationary point found.

                         Standard orientation:
 ---------------------------------------------------------------------
 Center     Atomic      Atomic             Coordinates (Angstroms)
 Number     Number       Type             X           Y           Z
 ---------------------------------------------------------------------
      1          6           0       -3.964687    0.326123   -0.000330
      2          6           0       -2.876758    1.193966   -0.002071
      3          6           0       -1.572553    0.685050   -0.001369
      4          6           0       -1.360962   -0.705047    0.001028
      5          6           0       -2.461204   -1.571172    0.002926
      6          6           0       -3.755534   -1.058326    0.002262
      7          6           0       -0.422164    1.627661   -0.002138
      8          6           0        0.015359   -1.284497    0.000909
      9          6           0        1.158740   -0.363928   -0.003020
     10          6           0        0.954067    1.043223   -0.001090
     11          6           0        2.023973    1.928613    0.002960
     12          1           0        1.819987    2.992967    0.004239
     13          6           0        3.332985    1.428390    0.006282
     14          6           0        3.568680    0.067124    0.003355
     15          6           0        2.498685   -0.863663   -0.003361
     16          1           0       -4.976024    0.723384   -0.000904
     17          1           0       -3.008230    2.271003   -0.003823
     18          1           0       -2.275805   -2.639844    0.004719
     19          1           0       -4.605263   -1.735653    0.003666
     20          1           0        4.174799    2.115747    0.010894
     21          1           0        4.587496   -0.313690    0.004357
     22          8           0        0.146745   -2.519410    0.005223
     23          8           0       -0.598809    2.842071   -0.003038
     24          7           0        2.766413   -2.193782   -0.016817
     25          1           0        3.718406   -2.520796    0.029265
     26          1           0        1.984490   -2.839033    0.009757
 ---------------------------------------------------------------------

 The electronic state is 1-A.
 Alpha  occ. eigenvalues --  -19.14000 -19.13754 -14.35214 -10.27910 -10.27652
 Alpha  occ. eigenvalues --  -10.25449 -10.20895 -10.20784 -10.20717 -10.20713
 Alpha  occ. eigenvalues --  -10.20648 -10.20576 -10.20442 -10.20238 -10.20178
 Alpha  occ. eigenvalues --  -10.20132 -10.19127  -1.03745  -1.03517  -0.93518
 Alpha  occ. eigenvalues --   -0.87321  -0.85290  -0.79606  -0.76257  -0.75605
 Alpha  occ. eigenvalues --   -0.74403  -0.67306  -0.65380  -0.63457  -0.60318
 Alpha  occ. eigenvalues --   -0.57415  -0.56290  -0.54335  -0.51898  -0.49511
 Alpha  occ. eigenvalues --   -0.48599  -0.47110  -0.46291  -0.45560  -0.43688
 Alpha  occ. eigenvalues --   -0.43605  -0.42993  -0.42400  -0.41438  -0.39686
 Alpha  occ. eigenvalues --   -0.38598  -0.38428  -0.37554  -0.36066  -0.35550
 Alpha  occ. eigenvalues --   -0.35231  -0.31935  -0.27032  -0.26319  -0.26116
 Alpha  occ. eigenvalues --   -0.26075  -0.25092  -0.21222
 Alpha virt. eigenvalues --   -0.09577  -0.04475  -0.01626   0.00541   0.06016
 Alpha virt. eigenvalues --    0.06785   0.08261   0.09760   0.10683   0.14762
 Alpha virt. eigenvalues --    0.15274   0.15371   0.16532   0.17919   0.18450

 Mulliken charges:
               1
     1  C   -0.127032
     2  C   -0.172148
     3  C    0.048123
     4  C    0.056334
     5  C   -0.175624
     6  C   -0.124479
     7  C    0.341208
     8  C    0.359465
     9  C    0.017501
    10  C    0.026295
    11  C   -0.186806
    12  H    0.162145
    13  C   -0.129682
    14  C   -0.168622
    15  C    0.327679
    16  H    0.142751
    17  H    0.166506
    18  H    0.165312
    19  H    0.142281
    20  H    0.142156
    21  H    0.128162
    22  O   -0.544109
    23  O   -0.482579
    24  N   -0.830549
    25  H    0.330730
    26  H    0.384983
 Sum of Mulliken charges =  -0.00000

 Dipole moment (field-independent basis, Debye):
    X=              1.4205    Y=             -1.7514    Z=              0.1099  Tot=              2.2577
 Quadrupole moment (field-independent basis, Debye-Ang):
   XX=            -68.2243   YY=            -99.5150   ZZ=            -98.5735
   XY=             -1.5495   XZ=              0.3830   YZ=             -0.2752

 Normal termination of Gaussian 09 at Mon May 31 02:42:57 2021.
