 Gaussian 09, Revision E.01,
 Gaussian 09:  ES64L-G09RevE.01 30-Nov-2015

 -----------------------------------------------------
 #p opt b3lyp/6-31g(d) geom=connectivity int=ultrafine
 -----------------------------------------------------

 -------------------------
 1_nitro_anthraquinone opt
 -------------------------
 Symbolic Z-matrix:
 Charge =  0 Multiplicity = 1

 SCF Done:  E(RB3LYP) =  -893.078395524     A.U. after   25 cycles
 SCF Done:  E(RB3LYP) =  -893.157473837     A.U. after   18 cycles
 SCF Done:  E(RB3LYP) =  -893.236575107     A.U. after   17 cycles
 SCF Done:  E(RB3LYP) =  -893.244994175     A.U. after   17 cycles
 SCF Done:  E(RB3LYP) =  -893.251278745     A.U. after   17 cycles
 SCF Done:  E(RB3LYP) =  -893.258964652     A.U. after   15 cycles
 SCF Done:  E(RB3LYP) =  -893.260192407     A.U. after   15 cycles
 SCF Done:  E(RB3LYP) =  -893.260450961     A.U. after   12 cycles
 SCF Done:  E(RB3LYP) =  -893.260540661     A.U. after   13 cycles
 SCF Done:  E(RB3LYP) =  -893.260576950     A.U. after   12 cycles
 SCF Done:  E(RB3LYP) =  -893.260591981     A.U. after   12 cycles
 SCF Done:  E(RB3LYP) =  -893.260604381     A.U. after   12 cycles
 SCF Done:  E(RB3LYP) =  -893.260608904     A.U. after   11 cycles
 SCF Done:  E(RB3LYP) =  -893.260612170     A.U. after   11 cycles
 SCF Done:  E(RB3LYP) =  -893.260616502     A.U. after   12 cycles
 SCF Done:  E(RB3LYP) =  -893.260619008     A.U. after   12 cycles
 SCF Done:  E(RB3LYP) =  -893.260619514     A.U. after   10 cycles
 SCF Done:  E(RB3LYP) =  -893.260619582     A.U. after    8 cycles
 Optimization completed.
    -- Stationary point found.

                         Standard orientation:
 ---------------------------------------------------------------------
 Center     Atomic      Atomic             Coordinates (Angstroms)
 Number     Number       Type             X           Y           Z
 ---------------------------------------------------------------------
      1          6           0       -4.314915   -0.410103    0.088307
      2          6           0       -3.463146    0.691068    0.078926
      3          6           0       -2.077691    0.504759    0.006640
      4          6           0       -1.549226   -0.798386   -0.063612
      5          6           0       -2.412886   -1.899794   -0.064618
      6          6           0       -3.789361   -1.705829    0.016551
      7          6           0       -1.185677    1.693824   -0.009010
      8          6           0       -0.082875   -1.037081   -0.166489
      9          6           0        0.820349    0.148107   -0.026475
     10          6           0        0.293446    1.455511   -0.023962
     11          6           0        1.141610    2.568025   -0.011820
     12          1           0        0.691133    3.554601   -0.008275
     13          6           0        2.521959    2.396980   -0.011544
     14          6           0        3.065011    1.110938   -0.000584
     15          6           0        2.214633    0.011418    0.013003
     16          1           0       -5.389477   -0.262626    0.148649
     17          1           0       -3.846327    1.705002    0.125916
     18          1           0       -1.983492   -2.893996   -0.129135
     19          1           0       -4.456345   -2.563234    0.022419
     20          1           0        3.181766    3.259176   -0.014551
     21          1           0        4.138493    0.954175    0.007694
     22          8           0        0.368615   -2.151111   -0.390957
     23          8           0       -1.632845    2.834262    0.007387
     24          7           0        2.875865   -1.308080    0.130059
     25          8           0        3.592111   -1.648088   -0.805784
     26          8           0        2.727844   -1.906707    1.187478
 ---------------------------------------------------------------------

 The electronic state is 1-A.
 Alpha  occ. eigenvalues --  -19.18824 -19.18773 -19.16212 -19.16192 -14.57758
 Alpha  occ. eigenvalues --  -10.30291 -10.30094 -10.27501 -10.24644 -10.23947
 Alpha  occ. eigenvalues --  -10.23862 -10.23465 -10.22883 -10.22822 -10.22742
 Alpha  occ. eigenvalues --  -10.22268 -10.22215 -10.21940 -10.21885  -1.23149
 Alpha  occ. eigenvalues --   -1.06367  -1.06050  -1.05911  -0.91178  -0.88861
 Alpha  occ. eigenvalues --   -0.82811  -0.81711  -0.78064  -0.78028  -0.72189
 Alpha  occ. eigenvalues --   -0.69455  -0.66833  -0.65511  -0.61183  -0.58502
 Alpha  occ. eigenvalues --   -0.57261  -0.56633  -0.54064  -0.52783  -0.51459
 Alpha  occ. eigenvalues --   -0.50539  -0.49512  -0.49327  -0.48316  -0.45790
 Alpha  occ. eigenvalues --   -0.45435  -0.45065  -0.45008  -0.44001  -0.41612
 Alpha  occ. eigenvalues --   -0.41149  -0.40675  -0.40170  -0.38354  -0.37236
 Alpha  occ. eigenvalues --   -0.37194  -0.31806  -0.31297  -0.30702  -0.29525
 Alpha  occ. eigenvalues --   -0.28385  -0.28068  -0.27857  -0.27577  -0.27178
 Alpha virt. eigenvalues --   -0.11818  -0.08258  -0.06280  -0.04003  -0.02700
 Alpha virt. eigenvalues --    0.03679   0.04048   0.07181   0.08813   0.12248
 Alpha virt. eigenvalues --    0.12948   0.13736   0.14265   0.15922   0.16711

 Mulliken charges:
               1
     1  C   -0.123765
     2  C   -0.169999
     3  C    0.053117
     4  C    0.052453
     5  C   -0.169303
     6  C   -0.123616
     7  C    0.351301
     8  C    0.358877
     9  C    0.082201
    10  C    0.004961
    11  C   -0.148340
    12  H    0.180103
    13  C   -0.140028
    14  C   -0.108466
    15  C    0.196224
    16  H    0.151389
    17  H    0.172505
    18  H    0.177547
    19  H    0.152476
    20  H    0.162604
    21  H    0.178509
    22  O   -0.462570
    23  O   -0.470955
    24  N    0.372261
    25  O   -0.365236
    26  O   -0.364252
 Sum of Mulliken charges =  -0.00000

 Dipole moment (field-independent basis, Debye):
    X=             -2.6096    Y=              2.8861    Z=              0.2131  Tot=              3.8968
 Quadrupole moment (field-independent basis, Debye-Ang):
   XX=            -90.8536   YY=           -110.4868   ZZ=           -108.7941
   XY=             22.3631   XZ=              0.6353   YZ=             -0.0678

 Normal termination of Gaussian 09 at Fri Jun  4 00:04:04 2021.
