 Gaussian 09, Revision E.01,
 Gaussian 09:  ES64L-G09RevE.01 30-Nov-2015

 -------------------------------------------------
 #p td(NStates=10) b3lyp/6-31+g(d) nosymm pop=full
 -------------------------------------------------

 ------------------------
 1_nitro_anthraquinone td
 ------------------------
 Symbolic Z-matrix:
 Charge =  0 Multiplicity = 1

                          Input orientation:
 ---------------------------------------------------------------------
 Center     Atomic      Atomic             Coordinates (Angstroms)
 Number     Number       Type             X           Y           Z
 ---------------------------------------------------------------------
      1          6           0       -4.314916   -0.410103    0.088307
      2          6           0       -3.463147    0.691068    0.078926
      3          6           0       -2.077691    0.504759    0.006640
      4          6           0       -1.549226   -0.798386   -0.063612
      5          6           0       -2.412887   -1.899794   -0.064618
      6          6           0       -3.789361   -1.705830    0.016551
      7          6           0       -1.185677    1.693824   -0.009010
      8          6           0       -0.082875   -1.037081   -0.166489
      9          6           0        0.820349    0.148107   -0.026475
     10          6           0        0.293447    1.455511   -0.023962
     11          6           0        1.141610    2.568025   -0.011820
     12          1           0        0.691134    3.554601   -0.008275
     13          6           0        2.521959    2.396980   -0.011544
     14          6           0        3.065011    1.110938   -0.000584
     15          6           0        2.214633    0.011418    0.013003
     16          1           0       -5.389478   -0.262626    0.148649
     17          1           0       -3.846327    1.705002    0.125916
     18          1           0       -1.983493   -2.893996   -0.129135
     19          1           0       -4.456345   -2.563234    0.022419
     20          1           0        3.181767    3.259176   -0.014551
     21          1           0        4.138493    0.954175    0.007694
     22          8           0        0.368615   -2.151111   -0.390957
     23          8           0       -1.632845    2.834262    0.007387
     24          7           0        2.875865   -1.308080    0.130059
     25          8           0        3.592111   -1.648089   -0.805784
     26          8           0        2.727844   -1.906707    1.187478
 ---------------------------------------------------------------------

 SCF Done:  E(RB3LYP) =  -893.294646706     A.U. after   16 cycles

 Excitation energies and oscillator strengths:

 Excited state symmetry could not be determined.
 Excited State   1:      Singlet-?Sym    2.9525 eV  419.92 nm  f=0.0006  <S**2>=0.000
      63 -> 66        -0.19669
      65 -> 66         0.65991
 This state for optimization and/or second-order correction.
 Total Energy, E(TD-HF/TD-KS) =  -893.186142917
 Copying the excited state density for this state as the 1-particle RhoCI density.

 Excited state symmetry could not be determined.
 Excited State   2:      Singlet-?Sym    3.1999 eV  387.46 nm  f=0.0005  <S**2>=0.000
      61 -> 66         0.61368
      62 -> 66        -0.14928
      63 -> 66        -0.23383
      65 -> 67        -0.13706

 Excited state symmetry could not be determined.
 Excited State   3:      Singlet-?Sym    3.6236 eV  342.16 nm  f=0.0542  <S**2>=0.000
      62 -> 66        -0.27068
      62 -> 67        -0.10474
      63 -> 66         0.44991
      64 -> 66        -0.32347
      64 -> 67        -0.13182
      65 -> 66         0.13943

 Excited state symmetry could not be determined.
 Excited State   4:      Singlet-?Sym    3.6642 eV  338.36 nm  f=0.0090  <S**2>=0.000
      60 -> 66         0.17323
      61 -> 66         0.23806
      62 -> 66         0.55760
      63 -> 66         0.28442

 Excited state symmetry could not be determined.
 Excited State   5:      Singlet-?Sym    3.7031 eV  334.82 nm  f=0.0437  <S**2>=0.000
      62 -> 66        -0.24705
      63 -> 66         0.25020
      64 -> 66         0.56434
      65 -> 66         0.13245

 Excited state symmetry could not be determined.
 Excited State   6:      Singlet-?Sym    3.9059 eV  317.42 nm  f=0.0068  <S**2>=0.000
      57 -> 67        -0.15374
      57 -> 68         0.11443
      58 -> 67        -0.12981
      63 -> 66        -0.17993
      63 -> 67         0.32196
      63 -> 68        -0.21193
      64 -> 66         0.20629
      64 -> 67        -0.29585
      64 -> 68         0.19224
      65 -> 67         0.19854
      65 -> 68        -0.10721

 Excited state symmetry could not be determined.
 Excited State   7:      Singlet-?Sym    4.2349 eV  292.77 nm  f=0.0033  <S**2>=0.000
      59 -> 66        -0.15792
      59 -> 67        -0.12374
      61 -> 66         0.15829
      63 -> 67        -0.21541
      65 -> 67         0.59017
      65 -> 68         0.11100

 Excited state symmetry could not be determined.
 Excited State   8:      Singlet-?Sym    4.2770 eV  289.88 nm  f=0.0087  <S**2>=0.000
      59 -> 66         0.33583
      59 -> 67         0.34946
      59 -> 68        -0.21256
      60 -> 66         0.13994
      61 -> 67        -0.31478
      62 -> 67         0.13490
      65 -> 67         0.18425

 Excited state symmetry could not be determined.
 Excited State   9:      Singlet-?Sym    4.4702 eV  277.36 nm  f=0.0939  <S**2>=0.000
      58 -> 66         0.14209
      59 -> 66        -0.10959
      59 -> 67        -0.18277
      59 -> 68         0.11358
      60 -> 66         0.53736
      61 -> 66        -0.11008
      61 -> 67        -0.19905
      65 -> 68        -0.12520

 Excited state symmetry could not be determined.
 Excited State  10:      Singlet-?Sym    4.5247 eV  274.02 nm  f=0.0177  <S**2>=0.000
      59 -> 66         0.33629
      60 -> 66         0.24633
      61 -> 67         0.38687
      62 -> 67        -0.18695
      63 -> 67        -0.23014
      64 -> 67        -0.15155
      65 -> 68         0.16874

 Alpha  occ. eigenvalues --  -19.20819 -19.20777 -19.17575 -19.17549 -14.59303
 Alpha  occ. eigenvalues --  -10.31484 -10.31289 -10.28739 -10.25830 -10.25005
 Alpha  occ. eigenvalues --  -10.25005 -10.24479 -10.23943 -10.23914 -10.23863
 Alpha  occ. eigenvalues --  -10.23255 -10.23201 -10.22935 -10.22878  -1.24881
 Alpha  occ. eigenvalues --   -1.07902  -1.07573  -1.07378  -0.92393  -0.89999
 Alpha  occ. eigenvalues --   -0.84032  -0.82875  -0.79142  -0.79131  -0.73459
 Alpha  occ. eigenvalues --   -0.70591  -0.67961  -0.66610  -0.62263  -0.59701
 Alpha  occ. eigenvalues --   -0.58492  -0.57813  -0.55417  -0.54065  -0.53051
 Alpha  occ. eigenvalues --   -0.51613  -0.50642  -0.50393  -0.49472  -0.46954
 Alpha  occ. eigenvalues --   -0.46440  -0.46223  -0.46173  -0.45152  -0.42841
 Alpha  occ. eigenvalues --   -0.42176  -0.41749  -0.41258  -0.39406  -0.38351
 Alpha  occ. eigenvalues --   -0.38201  -0.33323  -0.32949  -0.32440  -0.30711
 Alpha  occ. eigenvalues --   -0.29688  -0.29193  -0.29054  -0.28811  -0.28486
 Alpha virt. eigenvalues --   -0.13153  -0.09936  -0.08077  -0.05397  -0.04214
 Alpha virt. eigenvalues --   -0.00579  -0.00125   0.01383   0.01783   0.01835
 Alpha virt. eigenvalues --    0.02402   0.02449   0.03779   0.03990   0.04663

 Mulliken charges:
               1
     1  C   -0.519296
     2  C   -0.103877
     3  C    0.229004
     4  C    0.213279
     5  C   -0.166946
     6  C   -0.247758
     7  C    0.352104
     8  C   -0.284124
     9  C    0.189574
    10  C    0.590952
    11  C   -0.154668
    12  H    0.235460
    13  C   -0.502437
    14  C   -0.358318
    15  C    0.405899
    16  H    0.196419
    17  H    0.230442
    18  H    0.232646
    19  H    0.197756
    20  H    0.206576
    21  H    0.221502
    22  O   -0.407744
    23  O   -0.471678
    24  N   -0.312475
    25  O    0.017452
    26  O    0.010255
 Sum of Mulliken charges =  -0.00000

 Dipole moment (field-independent basis, Debye):
    X=             -2.7623    Y=              3.0573    Z=              0.2123  Tot=              4.1258
 Quadrupole moment (field-independent basis, Debye-Ang):
   XX=            -93.2631   YY=           -114.2120   ZZ=           -112.1839
   XY=             24.1494   XZ=              0.5644   YZ=             -0.1111

 Normal termination of Gaussian 09 at Fri Jun  4 10:59:07 2021.
