 Gaussian 09, Revision E.01,
 Gaussian 09:  ES64L-G09RevE.01 30-Nov-2015

 --------------------------------------------------------
 #p b3lyp/6-31g* opt=tight geom=connectivit int=ultrafine
 --------------------------------------------------------

 --------------------
 benzene optimization
 --------------------
 Symbolic Z-matrix:
 Charge =  0 Multiplicity = 1

 SCF Done:  E(RB3LYP) =  -232.245632691     A.U. after   10 cycles
 SCF Done:  E(RB3LYP) =  -232.248649260     A.U. after    9 cycles
 SCF Done:  E(RB3LYP) =  -232.248649666     A.U. after    5 cycles
 SCF Done:  E(RB3LYP) =  -232.248649672     A.U. after    4 cycles
 Optimization completed.
    -- Stationary point found.

                         Standard orientation:
 ---------------------------------------------------------------------
 Center     Atomic      Atomic             Coordinates (Angstroms)
 Number     Number       Type             X           Y           Z
 ---------------------------------------------------------------------
      1          6           0        1.209510   -0.698311   -0.000000
      2          6           0        1.209510    0.698311   -0.000000
      3          6           0       -0.000000    1.396621    0.000000
      4          6           0       -1.209510    0.698311   -0.000000
      5          6           0       -1.209510   -0.698311   -0.000000
      6          6           0        0.000000   -1.396621   -0.000000
      7          1           0        2.150890   -1.241818   -0.000000
      8          1           0        2.150889    1.241818   -0.000000
      9          1           0       -0.000000    2.483633    0.000000
     10          1           0       -2.150890    1.241818   -0.000000
     11          1           0       -2.150889   -1.241818   -0.000000
     12          1           0        0.000000   -2.483633   -0.000000
 ---------------------------------------------------------------------

 The electronic state is 1-AG.
 Alpha  occ. eigenvalues --  -10.18774 -10.18748 -10.18748 -10.18692 -10.18692
 Alpha  occ. eigenvalues --  -10.18666  -0.84632  -0.73983  -0.73983  -0.59749
 Alpha  occ. eigenvalues --   -0.59749  -0.51855  -0.45929  -0.43810  -0.41726
 Alpha  occ. eigenvalues --   -0.41726  -0.35940  -0.34027  -0.34027  -0.24629
 Alpha  occ. eigenvalues --   -0.24629
 Alpha virt. eigenvalues --    0.00362   0.00362   0.09074   0.14469   0.14469
 Alpha virt. eigenvalues --    0.16394   0.18185   0.18185   0.19026   0.30266
 Alpha virt. eigenvalues --    0.30266   0.31914   0.31914   0.47488   0.52736

 Mulliken charges:
               1
     1  C   -0.128554
     2  C   -0.128554
     3  C   -0.128551
     4  C   -0.128554
     5  C   -0.128554
     6  C   -0.128551
     7  H    0.128553
     8  H    0.128553
     9  H    0.128552
    10  H    0.128553
    11  H    0.128553
    12  H    0.128552
 Sum of Mulliken charges =  -0.00000

 Dipole moment (field-independent basis, Debye):
    X=              0.0000    Y=              0.0000    Z=              0.0000  Tot=              0.0000
 Quadrupole moment (field-independent basis, Debye-Ang):
   XX=            -31.4026   YY=            -31.4026   ZZ=            -38.6009
   XY=              0.0000   XZ=              0.0000   YZ=              0.0000

 Normal termination of Gaussian 09 at Mon May  3 11:18:49 2021.
