 Gaussian 09, Revision E.01,
 Gaussian 09:  ES64L-G09RevE.01 30-Nov-2015

 ---------------------------------------------------
 #p opt b3lyp/6-31g* geom=connectivity int=ultrafine
 ---------------------------------------------------

 -------------------
 Title Card Required
 -------------------
 Symbolic Z-matrix:
 Charge =  0 Multiplicity = 1

 SCF Done:  E(RB3LYP) =  -688.691192081     A.U. after   16 cycles
 SCF Done:  E(RB3LYP) =  -688.748120778     A.U. after   14 cycles
 SCF Done:  E(RB3LYP) =  -688.775566826     A.U. after   14 cycles
 SCF Done:  E(RB3LYP) =  -688.779028874     A.U. after   12 cycles
 SCF Done:  E(RB3LYP) =  -688.779096416     A.U. after    9 cycles
 SCF Done:  E(RB3LYP) =  -688.779098596     A.U. after    8 cycles
 Optimization completed.
    -- Stationary point found.

                         Standard orientation:
 ---------------------------------------------------------------------
 Center     Atomic      Atomic             Coordinates (Angstroms)
 Number     Number       Type             X           Y           Z
 ---------------------------------------------------------------------
      1          6           0        3.695214    0.700061    0.000520
      2          6           0        2.490854    1.398521    0.000127
      3          6           0        1.275335    0.704360   -0.000080
      4          6           0        1.275336   -0.704359    0.000039
      5          6           0        2.490855   -1.398520    0.000331
      6          6           0        3.695215   -0.700060    0.000633
      7          6           0       -0.000000    1.478571   -0.000323
      8          6           0        0.000001   -1.478571   -0.000209
      9          6           0       -1.275336   -0.704359   -0.000076
     10          6           0       -1.275336    0.704359    0.000048
     11          6           0       -2.490855    1.398520    0.000411
     12          1           0       -2.464008    2.483282    0.000469
     13          6           0       -3.695215    0.700060    0.000671
     14          6           0       -3.695215   -0.700061    0.000465
     15          6           0       -2.490854   -1.398520    0.000063
     16          1           0        4.636330    1.243060    0.000705
     17          1           0        2.464008    2.483282    0.000007
     18          1           0        2.464006   -2.483282    0.000344
     19          1           0        4.636331   -1.243058    0.000957
     20          1           0       -4.636330    1.243059    0.001016
     21          1           0       -4.636330   -1.243060    0.000626
     22          1           0       -2.464006   -2.483282   -0.000082
     23          8           0        0.000000   -2.704899   -0.001205
     24          8           0       -0.000000    2.704898   -0.001265
 ---------------------------------------------------------------------

 The electronic state is 1-A.
 Alpha  occ. eigenvalues --  -19.14665 -19.14664 -10.28519 -10.28518 -10.21563
 Alpha  occ. eigenvalues --  -10.21562 -10.21513 -10.21513 -10.21265 -10.21265
 Alpha  occ. eigenvalues --  -10.21212 -10.21212 -10.20821 -10.20821 -10.20820
 Alpha  occ. eigenvalues --  -10.20820  -1.04567  -1.04370  -0.88305  -0.87175
 Alpha  occ. eigenvalues --   -0.80272  -0.77004  -0.76798  -0.76134  -0.67929
 Alpha  occ. eigenvalues --   -0.66009  -0.63347  -0.60902  -0.57579  -0.55259
 Alpha  occ. eigenvalues --   -0.54838  -0.49231  -0.48184  -0.47774  -0.47469
 Alpha  occ. eigenvalues --   -0.44444  -0.44191  -0.44054  -0.43604  -0.43077
 Alpha  occ. eigenvalues --   -0.42565  -0.40021  -0.39130  -0.38262  -0.36807
 Alpha  occ. eigenvalues --   -0.36663  -0.35568  -0.35550  -0.27612  -0.26991
 Alpha  occ. eigenvalues --   -0.26878  -0.26674  -0.26572  -0.25715
 Alpha virt. eigenvalues --   -0.10264  -0.05738  -0.02280  -0.01146   0.05385
 Alpha virt. eigenvalues --    0.05696   0.08916   0.09911   0.14243   0.14410
 Alpha virt. eigenvalues --    0.14650   0.15578   0.17208   0.18072   0.18106

 Mulliken charges:
               1
     1  C   -0.124774
     2  C   -0.172332
     3  C    0.047404
     4  C    0.047404
     5  C   -0.172332
     6  C   -0.124774
     7  C    0.347525
     8  C    0.347525
     9  C    0.047404
    10  C    0.047404
    11  C   -0.172332
    12  H    0.168947
    13  C   -0.124774
    14  C   -0.124774
    15  C   -0.172332
    16  H    0.146078
    17  H    0.168947
    18  H    0.168948
    19  H    0.146078
    20  H    0.146078
    21  H    0.146078
    22  H    0.168947
    23  O   -0.478172
    24  O   -0.478171
 Sum of Mulliken charges =   0.00000

 Dipole moment (field-independent basis, Debye):
    X=              0.0000    Y=              0.0000    Z=              0.0042  Tot=              0.0042
 Quadrupole moment (field-independent basis, Debye-Ang):
   XX=            -65.3181   YY=            -98.8677   ZZ=            -91.5177
   XY=              0.0000   XZ=             -0.0000   YZ=              0.0004

 Normal termination of Gaussian 09 at Sun May 30 18:47:11 2021.
