 Gaussian 09, Revision E.01,
 Gaussian 09:  ES64L-G09RevE.01 30-Nov-2015

 ------------------------------------------
 #p td(NStates=10) b3lyp/6-31+G(d) pop=full
 ------------------------------------------

 --
 TD
 --
 Symbolic Z-matrix:
 Charge =  0 Multiplicity = 1

                         Standard orientation:
 ---------------------------------------------------------------------
 Center     Atomic      Atomic             Coordinates (Angstroms)
 Number     Number       Type             X           Y           Z
 ---------------------------------------------------------------------
      1          6           0       -3.695215   -0.700061    0.000520
      2          6           0       -2.490854   -1.398521    0.000127
      3          6           0       -1.275335   -0.704360   -0.000080
      4          6           0       -1.275336    0.704359    0.000039
      5          6           0       -2.490855    1.398520    0.000331
      6          6           0       -3.695215    0.700060    0.000633
      7          6           0        0.000000   -1.478571   -0.000323
      8          6           0       -0.000001    1.478572   -0.000209
      9          6           0        1.275336    0.704359   -0.000076
     10          6           0        1.275336   -0.704359    0.000048
     11          6           0        2.490855   -1.398520    0.000411
     12          1           0        2.464008   -2.483282    0.000469
     13          6           0        3.695215   -0.700060    0.000671
     14          6           0        3.695215    0.700061    0.000465
     15          6           0        2.490855    1.398520    0.000063
     16          1           0       -4.636330   -1.243061    0.000705
     17          1           0       -2.464008   -2.483282    0.000007
     18          1           0       -2.464006    2.483282    0.000344
     19          1           0       -4.636331    1.243058    0.000957
     20          1           0        4.636330   -1.243059    0.001016
     21          1           0        4.636331    1.243060    0.000626
     22          1           0        2.464006    2.483282   -0.000082
     23          8           0       -0.000000    2.704900   -0.001205
     24          8           0        0.000000   -2.704898   -0.001265
 ---------------------------------------------------------------------

 SCF Done:  E(RB3LYP) =  -688.802955348     A.U. after   13 cycles

 Excitation energies and oscillator strengths:

 Excited State   1:      Singlet-A      2.9519 eV  420.01 nm  f=0.0000  <S**2>=0.000
      50 -> 56         0.11459
      54 -> 55         0.69420
 This state for optimization and/or second-order correction.
 Total Energy, E(TD-HF/TD-KS) =  -688.694473489
 Copying the excited state density for this state as the 1-particle RhoCI density.

 Excited State   2:      Singlet-A      3.2243 eV  384.53 nm  f=0.0000  <S**2>=0.000
      50 -> 55         0.68166
      54 -> 56         0.16882

 Excited State   3:      Singlet-A      3.6405 eV  340.57 nm  f=0.0000  <S**2>=0.000
      52 -> 55         0.70154

 Excited State   4:      Singlet-A      3.8169 eV  324.83 nm  f=0.1182  <S**2>=0.000
      51 -> 55         0.68520
      52 -> 56        -0.16605

 Excited State   5:      Singlet-A      3.8254 eV  324.11 nm  f=0.0000  <S**2>=0.000
      49 -> 56        -0.14127
      53 -> 55         0.68737

 Excited State   6:      Singlet-A      4.4480 eV  278.74 nm  f=0.0000  <S**2>=0.000
      50 -> 55        -0.17453
      54 -> 56         0.68257

 Excited State   7:      Singlet-A      4.4730 eV  277.18 nm  f=0.1764  <S**2>=0.000
      49 -> 55         0.68530
      52 -> 57        -0.12657

 Excited State   8:      Singlet-A      4.7432 eV  261.39 nm  f=0.0000  <S**2>=0.000
      50 -> 56         0.69039
      54 -> 55        -0.12187

 Excited State   9:      Singlet-A      5.0311 eV  246.44 nm  f=0.0101  <S**2>=0.000
      52 -> 57         0.10320
      53 -> 56         0.69210

 Excited State  10:      Singlet-A      5.0367 eV  246.16 nm  f=0.4849  <S**2>=0.000
      51 -> 55         0.15914
      52 -> 56         0.63918
      53 -> 57        -0.24409

 The electronic state is 1-A.
 Alpha  occ. eigenvalues --  -19.16044 -19.16044 -10.29727 -10.29727 -10.22702
 Alpha  occ. eigenvalues --  -10.22702 -10.22651 -10.22651 -10.22262 -10.22262
 Alpha  occ. eigenvalues --  -10.22208 -10.22208 -10.21826 -10.21826 -10.21826
 Alpha  occ. eigenvalues --  -10.21826  -1.05953  -1.05761  -0.89467  -0.88302
 Alpha  occ. eigenvalues --   -0.81386  -0.78100  -0.77869  -0.77226  -0.69059
 Alpha  occ. eigenvalues --   -0.67065  -0.64417  -0.61910  -0.58644  -0.56266
 Alpha  occ. eigenvalues --   -0.55922  -0.50336  -0.49167  -0.48826  -0.48535
 Alpha  occ. eigenvalues --   -0.45413  -0.45210  -0.45145  -0.44853  -0.44197
 Alpha  occ. eigenvalues --   -0.43715  -0.41264  -0.40102  -0.39310  -0.37768
 Alpha  occ. eigenvalues --   -0.37729  -0.36683  -0.36582  -0.28813  -0.28201
 Alpha  occ. eigenvalues --   -0.28062  -0.27755  -0.27646  -0.27021
 Alpha virt. eigenvalues --   -0.11622  -0.07284  -0.03721  -0.02682   0.00119
 Alpha virt. eigenvalues --    0.00490   0.02221   0.02368   0.02646   0.03366
 Alpha virt. eigenvalues --    0.03654   0.04625   0.04879   0.04906   0.05294

 Mulliken charges:
               1
     1  C   -0.354601
     2  C   -0.095152
     3  C    0.259401
     4  C    0.259406
     5  C   -0.095151
     6  C   -0.354604
     7  C    0.025708
     8  C    0.025708
     9  C    0.259406
    10  C    0.259402
    11  C   -0.095153
    12  H    0.226673
    13  C   -0.354601
    14  C   -0.354604
    15  C   -0.095150
    16  H    0.192835
    17  H    0.226673
    18  H    0.226673
    19  H    0.192835
    20  H    0.192835
    21  H    0.192835
    22  H    0.226673
    23  O   -0.484023
    24  O   -0.484024
 Sum of Mulliken charges =  -0.00000

 Dipole moment (field-independent basis, Debye):
    X=             -0.0000    Y=             -0.0000    Z=              0.0043  Tot=              0.0043
 Quadrupole moment (field-independent basis, Debye-Ang):
   XX=            -66.3532   YY=           -102.5522   ZZ=            -94.5190
   XY=              0.0000   XZ=              0.0000   YZ=             -0.0005

 Normal termination of Gaussian 09 at Sun May 30 23:09:01 2021.
