 Gaussian 09, Revision E.01,
 Gaussian 09:  ES64L-G09RevE.01 30-Nov-2015

 --------------------------------------------------
 #p td(NStates=10) b3lyp/6-31g(d,p) nosymm pop=full
 --------------------------------------------------

 ---
 opt
 ---
 Symbolic Z-matrix:
 Charge =  1 Multiplicity = 1

                          Input orientation:
 ---------------------------------------------------------------------
 Center     Atomic      Atomic             Coordinates (Angstroms)
 Number     Number       Type             X           Y           Z
 ---------------------------------------------------------------------
      1          6           0        3.667231   -0.283688    0.000563
      2          1           0        3.591279   -1.372031    0.000630
      3          6           0        2.479167    0.435965    0.000352
      4          1           0        2.524941    1.523479    0.000350
      5          6           0        1.223663   -0.179753    0.000145
      6          1           0        1.200439   -1.270376    0.000209
      7          6           0        4.955831    0.270690    0.000582
      8          1           0        5.060017    1.350938    0.000259
      9          6           0        6.079643   -0.541972    0.000426
     10          1           0        5.941309   -1.620573   -0.000796
     11          7           0        7.355429   -0.142676    0.001794
     12          6           0        0.000018    0.487575   -0.000133
     13          1           0        0.000026    1.576132   -0.000227
     14          6           0       -1.223637   -0.179760   -0.000274
     15          1           0       -1.200408   -1.270383   -0.000149
     16          6           0       -2.479144    0.435948   -0.000557
     17          1           0       -2.524922    1.523462   -0.000714
     18          6           0       -3.667220   -0.283710   -0.000620
     19          1           0       -3.591268   -1.372052   -0.000448
     20          6           0       -4.955815    0.270671   -0.000664
     21          1           0       -5.059985    1.350922   -0.000459
     22          7           0       -7.355411   -0.142687   -0.001436
     23          6           0       -6.079652   -0.541989   -0.000329
     24          1           0       -5.941320   -1.620591    0.001024
     25          6           0        7.698806    1.278951    0.003410
     26          1           0        7.307444    1.773052   -0.892096
     27          1           0        7.289160    1.774511    0.889698
     28          1           0        8.783208    1.383777    0.014683
     29          6           0        8.456556   -1.103151   -0.004539
     30          1           0        9.084578   -0.969730    0.882408
     31          1           0        8.060513   -2.119322   -0.003821
     32          1           0        9.076479   -0.967903   -0.896983
     33          6           0       -8.456611   -1.103106    0.004474
     34          1           0       -8.060630   -2.119296    0.004159
     35          1           0       -9.076972   -0.967617    0.896568
     36          1           0       -9.084161   -0.969791   -0.882831
     37          6           0       -7.698826    1.278939   -0.003208
     38          1           0       -7.307014    1.773220    0.891993
     39          1           0       -7.289658    1.774328   -0.889813
     40          1           0       -8.783237    1.383726   -0.013921
 ---------------------------------------------------------------------

 SCF Done:  E(RB3LYP) =  -694.736816073     A.U. after   15 cycles

 Excitation energies and oscillator strengths:

 Excited state symmetry could not be determined.
 Excited State   1:      Singlet-?Sym    2.5141 eV  493.16 nm  f=2.7680  <S**2>=0.000
      63 -> 64         0.72497
      63 <- 64        -0.18092
 This state for optimization and/or second-order correction.
 Total Energy, E(TD-HF/TD-KS) =  -694.644425533
 Copying the excited state density for this state as the 1-particle RhoCI density.

 Excited state symmetry could not be determined.
 Excited State   2:      Singlet-?Sym    3.3424 eV  370.95 nm  f=0.0090  <S**2>=0.000
      62 -> 64         0.57133
      63 -> 65        -0.41620

 Excited state symmetry could not be determined.
 Excited State   3:      Singlet-?Sym    4.4105 eV  281.11 nm  f=0.0061  <S**2>=0.000
      62 -> 64         0.42413
      63 -> 65         0.57517
      62 <- 64        -0.10894
      63 <- 65        -0.10416

 Excited state symmetry could not be determined.
 Excited State   4:      Singlet-?Sym    4.4901 eV  276.13 nm  f=0.0025  <S**2>=0.000
      61 -> 64         0.63398
      62 -> 65         0.28212
      63 -> 66         0.12851

 Excited state symmetry could not be determined.
 Excited State   5:      Singlet-?Sym    4.8490 eV  255.69 nm  f=0.0013  <S**2>=0.000
      61 -> 64         0.11363
      62 -> 65        -0.47659
      63 -> 66         0.50343

 Excited state symmetry could not be determined.
 Excited State   6:      Singlet-?Sym    5.4131 eV  229.05 nm  f=0.0022  <S**2>=0.000
      60 -> 64         0.67519
      61 -> 65        -0.12767
      62 -> 66         0.12851

 Excited state symmetry could not be determined.
 Excited State   7:      Singlet-?Sym    5.8052 eV  213.57 nm  f=0.1478  <S**2>=0.000
      61 -> 64        -0.28858
      62 -> 65         0.42728
      63 -> 66         0.46952

 Excited state symmetry could not be determined.
 Excited State   8:      Singlet-?Sym    6.0015 eV  206.59 nm  f=0.0047  <S**2>=0.000
      61 -> 65        -0.42932
      63 -> 67         0.54838

 Excited state symmetry could not be determined.
 Excited State   9:      Singlet-?Sym    6.0945 eV  203.44 nm  f=0.0001  <S**2>=0.000
      59 -> 64         0.68305

 Excited state symmetry could not be determined.
 Excited State  10:      Singlet-?Sym    6.1053 eV  203.08 nm  f=0.0000  <S**2>=0.000
      57 -> 64         0.70133

 Alpha  occ. eigenvalues --  -14.49622 -14.49621 -10.35055 -10.35054 -10.32732
 Alpha  occ. eigenvalues --  -10.32731 -10.32499 -10.32498 -10.30916 -10.30916
 Alpha  occ. eigenvalues --  -10.30337 -10.30336 -10.28791 -10.28790 -10.28314
 Alpha  occ. eigenvalues --  -10.28313 -10.28281  -1.07694  -1.07693  -0.93034
 Alpha  occ. eigenvalues --   -0.91905  -0.89769  -0.87041  -0.84102  -0.83828
 Alpha  occ. eigenvalues --   -0.83827  -0.81004  -0.77737  -0.73544  -0.69150
 Alpha  occ. eigenvalues --   -0.67092  -0.66880  -0.65599  -0.65384  -0.61862
 Alpha  occ. eigenvalues --   -0.61527  -0.59890  -0.59688  -0.57896  -0.57895
 Alpha  occ. eigenvalues --   -0.56260  -0.55432  -0.52746  -0.52460  -0.51463
 Alpha  occ. eigenvalues --   -0.51457  -0.51455  -0.50788  -0.49937  -0.49610
 Alpha  occ. eigenvalues --   -0.49447  -0.48315  -0.47394  -0.46816  -0.45762
 Alpha  occ. eigenvalues --   -0.45599  -0.45150  -0.44946  -0.43131  -0.40523
 Alpha  occ. eigenvalues --   -0.37004  -0.32491  -0.27208
 Alpha virt. eigenvalues --   -0.19326  -0.12770  -0.07232  -0.02985  -0.01642
 Alpha virt. eigenvalues --   -0.01465  -0.00665  -0.00340  -0.00154   0.00944
 Alpha virt. eigenvalues --    0.01547   0.02550   0.02568   0.03429   0.03731

 Mulliken charges:
               1
     1  C   -0.043505
     2  H    0.099530
     3  C   -0.097984
     4  H    0.096710
     5  C   -0.050871
     6  H    0.099542
     7  C   -0.126877
     8  H    0.103107
     9  C    0.162737
    10  H    0.129973
    11  N   -0.393179
    12  C   -0.091004
    13  H    0.098070
    14  C   -0.050873
    15  H    0.099543
    16  C   -0.097986
    17  H    0.096710
    18  C   -0.043501
    19  H    0.099531
    20  C   -0.126882
    21  H    0.103108
    22  N   -0.393175
    23  C    0.162743
    24  H    0.129977
    25  C   -0.195602
    26  H    0.153752
    27  H    0.153673
    28  H    0.147539
    29  C   -0.192072
    30  H    0.153603
    31  H    0.142696
    32  H    0.153678
    33  C   -0.192076
    34  H    0.142700
    35  H    0.153682
    36  H    0.153612
    37  C   -0.195605
    38  H    0.153759
    39  H    0.153676
    40  H    0.147541
 Sum of Mulliken charges =   1.00000

 Dipole moment (field-independent basis, Debye):
    X=             -0.0013    Y=             -1.0678    Z=             -0.0000  Tot=              1.0678
 Quadrupole moment (field-independent basis, Debye-Ang):
   XX=            149.0816   YY=            -85.4932   ZZ=           -107.3355
   XY=              0.0001   XZ=             -0.0520   YZ=             -0.0005

 Normal termination of Gaussian 09 at Tue Jun  8 19:06:26 2021.
