 Gaussian 09, Revision E.01,
 Gaussian 09:  ES64L-G09RevE.01 30-Nov-2015

 ------------------------------------------------
 #p td(NStates=10) b3lyp/6-31g(d) nosymm pop=full
 ------------------------------------------------

 -------------------
 Title Card Required
 -------------------
 Symbolic Z-matrix:
 Charge =  0 Multiplicity = 1

                          Input orientation:
 ---------------------------------------------------------------------
 Center     Atomic      Atomic             Coordinates (Angstroms)
 Number     Number       Type             X           Y           Z
 ---------------------------------------------------------------------
      1          6           0       -1.824702    0.370946   -0.000156
      2          1           0       -1.799321    1.461780   -0.000075
      3          6           0       -0.650709   -0.308644   -0.000284
      4          1           0       -0.677442   -1.399536   -0.000218
      5          6           0        0.650709    0.308618   -0.000262
      6          1           0        0.677433    1.399511   -0.000211
      7          6           0        1.824710   -0.370953   -0.000106
      8          1           0        1.799359   -1.461787   -0.000044
      9          6           0        3.130841    0.249894    0.000082
     10          1           0        3.152807    1.341277    0.000059
     11          6           0        4.297324   -0.423522    0.000113
     12          1           0        4.268921   -1.514510    0.000147
     13          6           0       -3.130847   -0.249874    0.000001
     14          1           0       -3.152835   -1.341260   -0.000158
     15          6           0       -4.297326    0.423555    0.000072
     16          1           0       -4.268905    1.514540    0.000115
     17          6           0        5.657106    0.205980    0.000168
     18          1           0        6.239914   -0.100972    0.880101
     19          1           0        6.240040   -0.101233   -0.879623
     20          1           0        5.595427    1.299506   -0.000037
     21          6           0       -5.657105   -0.205989    0.000219
     22          1           0       -6.240413    0.101758   -0.879106
     23          1           0       -5.595420   -1.299513   -0.000646
     24          1           0       -6.239563    0.100380    0.880616
 ---------------------------------------------------------------------

 SCF Done:  E(RB3LYP) =  -389.445961262     A.U. after   13 cycles

 Excitation energies and oscillator strengths:

 Excited state symmetry could not be determined.
 Excited State   1:      Singlet-?Sym    3.9803 eV  311.49 nm  f=1.7207  <S**2>=0.000
      37 -> 38         0.71358
      37 <- 38        -0.12138
 This state for optimization and/or second-order correction.
 Total Energy, E(TD-HF/TD-KS) =  -389.299687340
 Copying the excited state density for this state as the 1-particle RhoCI density.

 Excited state symmetry could not be determined.
 Excited State   2:      Singlet-?Sym    4.8303 eV  256.68 nm  f=0.0000  <S**2>=0.000
      36 -> 38         0.55504
      37 -> 39        -0.43437

 Excited state symmetry could not be determined.
 Excited State   3:      Singlet-?Sym    6.1182 eV  202.65 nm  f=0.0000  <S**2>=0.000
      36 -> 38         0.43503
      37 -> 39         0.55334

 Excited state symmetry could not be determined.
 Excited State   4:      Singlet-?Sym    6.2062 eV  199.77 nm  f=0.0011  <S**2>=0.000
      35 -> 38         0.59321
      37 -> 40        -0.37581

 Excited state symmetry could not be determined.
 Excited State   5:      Singlet-?Sym    6.6663 eV  185.99 nm  f=0.0001  <S**2>=0.000
      37 -> 41         0.69646

 Excited state symmetry could not be determined.
 Excited State   6:      Singlet-?Sym    6.8348 eV  181.40 nm  f=0.0002  <S**2>=0.000
      33 -> 38         0.69101

 Excited state symmetry could not be determined.
 Excited State   7:      Singlet-?Sym    6.9574 eV  178.21 nm  f=0.0577  <S**2>=0.000
      35 -> 38         0.22394
      36 -> 39         0.51125
      37 -> 40         0.43039

 Excited state symmetry could not be determined.
 Excited State   8:      Singlet-?Sym    7.0029 eV  177.05 nm  f=0.0000  <S**2>=0.000
      34 -> 38         0.53190
      37 -> 42         0.46052

 Excited state symmetry could not be determined.
 Excited State   9:      Singlet-?Sym    7.0772 eV  175.19 nm  f=0.0000  <S**2>=0.000
      32 -> 38         0.68793

 Excited state symmetry could not be determined.
 Excited State  10:      Singlet-?Sym    7.3387 eV  168.94 nm  f=0.0000  <S**2>=0.000
      36 -> 41        -0.13839
      37 -> 43         0.55660
      37 -> 45        -0.40399

 Alpha  occ. eigenvalues --  -10.18792 -10.18792 -10.18584 -10.18577 -10.18500
 Alpha  occ. eigenvalues --  -10.18468 -10.18302 -10.18302 -10.18259 -10.18259
 Alpha  occ. eigenvalues --   -0.81846  -0.80162  -0.77580  -0.74090  -0.69699
 Alpha  occ. eigenvalues --   -0.66026  -0.59267  -0.55743  -0.54439  -0.54409
 Alpha  occ. eigenvalues --   -0.47404  -0.46615  -0.43074  -0.42992  -0.41024
 Alpha  occ. eigenvalues --   -0.41015  -0.39872  -0.38332  -0.36956  -0.36207
 Alpha  occ. eigenvalues --   -0.35508  -0.34526  -0.33803  -0.33572  -0.29991
 Alpha  occ. eigenvalues --   -0.24749  -0.18417
 Alpha virt. eigenvalues --   -0.04789   0.02744   0.08689   0.09562   0.11412
 Alpha virt. eigenvalues --    0.11703   0.11877   0.11919   0.15043   0.15253
 Alpha virt. eigenvalues --    0.15785   0.16241   0.17315   0.17358   0.17384

 Mulliken charges:
               1
     1  C   -0.124626
     2  H    0.119169
     3  C   -0.125721
     4  H    0.119120
     5  C   -0.125725
     6  H    0.119119
     7  C   -0.124624
     8  H    0.119169
     9  C   -0.099708
    10  H    0.116275
    11  C   -0.106883
    12  H    0.123367
    13  C   -0.099709
    14  H    0.116275
    15  C   -0.106883
    16  H    0.123369
    17  C   -0.490253
    18  H    0.157619
    19  H    0.157608
    20  H    0.154036
    21  C   -0.490255
    22  H    0.157604
    23  H    0.154038
    24  H    0.157622
 Sum of Mulliken charges =  -0.00000

 Dipole moment (field-independent basis, Debye):
    X=              0.0000    Y=             -0.0000    Z=              0.0003  Tot=              0.0003
 Quadrupole moment (field-independent basis, Debye-Ang):
   XX=            -50.7213   YY=            -57.0632   ZZ=            -66.2176
   XY=             -0.7633   XZ=             -0.0005   YZ=              0.0001

 Normal termination of Gaussian 09 at Sun Jun  6 19:43:25 2021.
