 Gaussian 09, Revision E.01,
 Gaussian 09:  ES64L-G09RevE.01 30-Nov-2015

 -----------------------------------------------------
 #p opt b3lyp/6-31g(d) geom=connectivity int=ultrafine
 -----------------------------------------------------

 -------------------
 Title Card Required
 -------------------
 Symbolic Z-matrix:
 Charge =  0 Multiplicity = 1

 SCF Done:  E(RB3LYP) =  -389.404171137     A.U. after   13 cycles
 SCF Done:  E(RB3LYP) =  -389.432339218     A.U. after   12 cycles
 SCF Done:  E(RB3LYP) =  -389.439616460     A.U. after   12 cycles
 SCF Done:  E(RB3LYP) =  -389.439895801     A.U. after   11 cycles
 SCF Done:  E(RB3LYP) =  -389.439903144     A.U. after   11 cycles
 SCF Done:  E(RB3LYP) =  -389.439942529     A.U. after   11 cycles
 SCF Done:  E(RB3LYP) =  -389.439956525     A.U. after    9 cycles
 SCF Done:  E(RB3LYP) =  -389.439956831     A.U. after    7 cycles
 SCF Done:  E(RB3LYP) =  -389.439959350     A.U. after    7 cycles
 SCF Done:  E(RB3LYP) =  -389.440345799     A.U. after   11 cycles
 SCF Done:  E(RB3LYP) =  -389.440679105     A.U. after    9 cycles
 SCF Done:  E(RB3LYP) =  -389.442535656     A.U. after   13 cycles
 SCF Done:  E(RB3LYP) =  -389.443535865     A.U. after   12 cycles
 SCF Done:  E(RB3LYP) =  -389.444668246     A.U. after   12 cycles
 SCF Done:  E(RB3LYP) =  -389.445200964     A.U. after   10 cycles
 SCF Done:  E(RB3LYP) =  -389.445851378     A.U. after   11 cycles
 SCF Done:  E(RB3LYP) =  -389.445897244     A.U. after   10 cycles
 SCF Done:  E(RB3LYP) =  -389.445931616     A.U. after   10 cycles
 SCF Done:  E(RB3LYP) =  -389.445945335     A.U. after    9 cycles
 SCF Done:  E(RB3LYP) =  -389.445945615     A.U. after    7 cycles
 Optimization completed.
    -- Stationary point found.

                         Standard orientation:
 ---------------------------------------------------------------------
 Center     Atomic      Atomic             Coordinates (Angstroms)
 Number     Number       Type             X           Y           Z
 ---------------------------------------------------------------------
      1          6           0       -1.824702    0.370946   -0.000156
      2          1           0       -1.799321    1.461780   -0.000075
      3          6           0       -0.650709   -0.308644   -0.000284
      4          1           0       -0.677442   -1.399536   -0.000218
      5          6           0        0.650708    0.308618   -0.000262
      6          1           0        0.677433    1.399511   -0.000211
      7          6           0        1.824710   -0.370953   -0.000106
      8          1           0        1.799359   -1.461787   -0.000044
      9          6           0        3.130841    0.249894    0.000082
     10          1           0        3.152807    1.341277    0.000059
     11          6           0        4.297323   -0.423522    0.000113
     12          1           0        4.268921   -1.514510    0.000147
     13          6           0       -3.130847   -0.249874    0.000001
     14          1           0       -3.152835   -1.341260   -0.000158
     15          6           0       -4.297325    0.423555    0.000072
     16          1           0       -4.268905    1.514539    0.000115
     17          6           0        5.657105    0.205980    0.000168
     18          1           0        6.239913   -0.100972    0.880101
     19          1           0        6.240040   -0.101232   -0.879623
     20          1           0        5.595426    1.299506   -0.000037
     21          6           0       -5.657105   -0.205989    0.000219
     22          1           0       -6.240412    0.101758   -0.879106
     23          1           0       -5.595419   -1.299513   -0.000646
     24          1           0       -6.239563    0.100380    0.880616
 ---------------------------------------------------------------------

 The electronic state is 1-A.
 Alpha  occ. eigenvalues --  -10.18791 -10.18791 -10.18584 -10.18577 -10.18500
 Alpha  occ. eigenvalues --  -10.18468 -10.18302 -10.18302 -10.18259 -10.18259
 Alpha  occ. eigenvalues --   -0.81846  -0.80162  -0.77580  -0.74090  -0.69699
 Alpha  occ. eigenvalues --   -0.66026  -0.59267  -0.55743  -0.54439  -0.54409
 Alpha  occ. eigenvalues --   -0.47404  -0.46615  -0.43074  -0.42992  -0.41024
 Alpha  occ. eigenvalues --   -0.41015  -0.39872  -0.38332  -0.36956  -0.36207
 Alpha  occ. eigenvalues --   -0.35508  -0.34526  -0.33803  -0.33572  -0.29990
 Alpha  occ. eigenvalues --   -0.24748  -0.18417
 Alpha virt. eigenvalues --   -0.04789   0.02744   0.08689   0.09562   0.11413
 Alpha virt. eigenvalues --    0.11703   0.11877   0.11919   0.15043   0.15254
 Alpha virt. eigenvalues --    0.15785   0.16241   0.17315   0.17358   0.17385

 Mulliken charges:
               1
     1  C   -0.124624
     2  H    0.119168
     3  C   -0.125718
     4  H    0.119119
     5  C   -0.125722
     6  H    0.119118
     7  C   -0.124621
     8  H    0.119168
     9  C   -0.099696
    10  H    0.116273
    11  C   -0.106903
    12  H    0.123368
    13  C   -0.099698
    14  H    0.116273
    15  C   -0.106904
    16  H    0.123370
    17  C   -0.490239
    18  H    0.157615
    19  H    0.157604
    20  H    0.154036
    21  C   -0.490242
    22  H    0.157600
    23  H    0.154037
    24  H    0.157618
 Sum of Mulliken charges =  -0.00000

 Dipole moment (field-independent basis, Debye):
    X=              0.0000    Y=             -0.0000    Z=              0.0003  Tot=              0.0003
 Quadrupole moment (field-independent basis, Debye-Ang):
   XX=            -50.7228   YY=            -57.0633   ZZ=            -66.2173
   XY=             -0.7629   XZ=             -0.0005   YZ=              0.0001

 Normal termination of Gaussian 09 at Sun Jun  6 13:10:32 2021.
