 Gaussian 09, Revision E.01,
 Gaussian 09:  ES64L-G09RevE.01 30-Nov-2015

 -----------------------------------------------
 #p td b3lyp/6-31g(d) geom=connectivity pop=full
 -----------------------------------------------

 -------------------
 Title Card Required
 -------------------
 Symbolic Z-matrix:
 Charge =  0 Multiplicity = 1

                         Standard orientation:
 ---------------------------------------------------------------------
 Center     Atomic      Atomic             Coordinates (Angstroms)
 Number     Number       Type             X           Y           Z
 ---------------------------------------------------------------------
      1          6           0        0.416781   -1.817281   -0.000415
      2          1           0        1.506535   -1.763378   -0.000304
      3          6           0       -0.292547   -0.654729   -0.000529
      4          1           0       -1.382314   -0.708902   -0.000642
      5          6           0        0.292547    0.654729   -0.000529
      6          1           0        1.382314    0.708902   -0.000642
      7          6           0       -0.416781    1.817281   -0.000415
      8          1           0       -1.506535    1.763378   -0.000304
      9          6           0        0.169070    3.128473   -0.000438
     10          1           0        1.258969    3.181365   -0.000835
     11          6           0       -0.538488    4.288325    0.000046
     12          1           0       -1.628346    4.237097    0.000480
     13          6           0        0.051662    5.606922    0.000060
     14          1           0        1.142173    5.654596   -0.000368
     15          6           0       -0.649255    6.757959    0.000552
     16          1           0       -1.739221    6.703777    0.000978
     17          6           0       -0.169070   -3.128473   -0.000438
     18          1           0       -1.258969   -3.181365   -0.000835
     19          6           0        0.538488   -4.288325    0.000046
     20          1           0        1.628346   -4.237097    0.000480
     21          6           0       -0.051662   -5.606922    0.000060
     22          1           0       -1.142173   -5.654596   -0.000368
     23          6           0        0.649255   -6.757959    0.000552
     24          1           0        1.739221   -6.703777    0.000978
     25          6           0       -0.051662    8.131737    0.000557
     26          1           0       -0.372913    8.707403   -0.879014
     27          1           0       -0.372248    8.707102    0.880569
     28          1           0        1.042974    8.095745    0.000138
     29          6           0        0.051662   -8.131737    0.000557
     30          1           0        0.372913   -8.707403   -0.879014
     31          1           0        0.372248   -8.707102    0.880569
     32          1           0       -1.042974   -8.095745    0.000138
 ---------------------------------------------------------------------

 SCF Done:  E(RB3LYP) =  -544.261098226     A.U. after   13 cycles

 Excitation energies and oscillator strengths:

 Excited State   1:      Singlet-B      3.1566 eV  392.77 nm  f=2.5187  <S**2>=0.000
      51 -> 52         0.71575
      51 <- 52        -0.12804
 This state for optimization and/or second-order correction.
 Total Energy, E(TD-HF/TD-KS) =  -544.145094242
 Copying the excited state density for this state as the 1-particle RhoCI density.

 Excited State   2:      Singlet-A      3.7283 eV  332.55 nm  f=0.0000  <S**2>=0.000
      50 -> 52         0.54207
      51 -> 53         0.44895

 Excited State   3:      Singlet-B      4.8959 eV  253.24 nm  f=0.0054  <S**2>=0.000
      49 -> 52         0.60148
      51 -> 54         0.35220

 The electronic state is 1-A.
 Alpha  occ. eigenvalues --  -10.18988 -10.18988 -10.18823 -10.18814 -10.18806
 Alpha  occ. eigenvalues --  -10.18804 -10.18750 -10.18720 -10.18669 -10.18669
 Alpha  occ. eigenvalues --  -10.18469 -10.18469 -10.18384 -10.18384  -0.82365
 Alpha  occ. eigenvalues --   -0.81409  -0.79947  -0.77984  -0.75519  -0.72555
 Alpha  occ. eigenvalues --   -0.69103  -0.66534  -0.61450  -0.57096  -0.56110
 Alpha  occ. eigenvalues --   -0.55400  -0.54327  -0.54172  -0.47724  -0.47687
 Alpha  occ. eigenvalues --   -0.45548  -0.44485  -0.42633  -0.41349  -0.41147
 Alpha  occ. eigenvalues --   -0.41146  -0.39631  -0.38829  -0.37073  -0.36962
 Alpha  occ. eigenvalues --   -0.36223  -0.35696  -0.34990  -0.34515  -0.34431
 Alpha  occ. eigenvalues --   -0.34026  -0.32745  -0.30003  -0.26403  -0.22074
 Alpha  occ. eigenvalues --   -0.17353
 Alpha virt. eigenvalues --   -0.06571  -0.01044   0.04158   0.08256   0.09073
 Alpha virt. eigenvalues --    0.10344   0.10679   0.11535   0.11729   0.11753
 Alpha virt. eigenvalues --    0.12351   0.14837   0.14903   0.15133   0.15625

 Mulliken charges:
               1
     1  C   -0.124621
     2  H    0.120792
     3  C   -0.124579
     4  H    0.120746
     5  C   -0.124579
     6  H    0.120746
     7  C   -0.124621
     8  H    0.120792
     9  C   -0.125494
    10  H    0.120322
    11  C   -0.124149
    12  H    0.120457
    13  C   -0.099785
    14  H    0.117265
    15  C   -0.106127
    16  H    0.124407
    17  C   -0.125494
    18  H    0.120322
    19  C   -0.124149
    20  H    0.120457
    21  C   -0.099785
    22  H    0.117265
    23  C   -0.106127
    24  H    0.124407
    25  C   -0.490640
    26  H    0.158400
    27  H    0.158398
    28  H    0.154608
    29  C   -0.490640
    30  H    0.158400
    31  H    0.158398
    32  H    0.154608
 Sum of Mulliken charges =  -0.00000

 Dipole moment (field-independent basis, Debye):
    X=              0.0000    Y=             -0.0000    Z=              0.0003  Tot=              0.0003
 Quadrupole moment (field-independent basis, Debye-Ang):
   XX=            -78.0542   YY=            -65.1065   ZZ=            -91.9961
   XY=             -1.5075   XZ=             -0.0000   YZ=              0.0000

 Normal termination of Gaussian 09 at Mon Jun  7 10:28:20 2021.
