 Gaussian 09, Revision E.01,
 Gaussian 09:  ES64L-G09RevE.01 30-Nov-2015

 -----------------------------------------------------
 #p opt b3lyp/6-31g(d) geom=connectivity int=ultrafine
 -----------------------------------------------------

 -------------------
 Title Card Required
 -------------------
 Symbolic Z-matrix:
 Charge =  0 Multiplicity = 1

 SCF Done:  E(RB3LYP) =  -544.216539851     A.U. after   13 cycles
 SCF Done:  E(RB3LYP) =  -544.247187912     A.U. after   12 cycles
 SCF Done:  E(RB3LYP) =  -544.258822124     A.U. after   13 cycles
 SCF Done:  E(RB3LYP) =  -544.260224040     A.U. after   10 cycles
 SCF Done:  E(RB3LYP) =  -544.260698962     A.U. after   13 cycles
 SCF Done:  E(RB3LYP) =  -544.261014682     A.U. after   11 cycles
 SCF Done:  E(RB3LYP) =  -544.261056236     A.U. after   10 cycles
 SCF Done:  E(RB3LYP) =  -544.261070788     A.U. after    9 cycles
 SCF Done:  E(RB3LYP) =  -544.261070888     A.U. after    8 cycles
 SCF Done:  E(RB3LYP) =  -544.261071933     A.U. after    7 cycles
 SCF Done:  E(RB3LYP) =  -544.261071934     A.U. after    6 cycles
 Optimization completed on the basis of negligible forces.
    -- Stationary point found.

                         Standard orientation:
 ---------------------------------------------------------------------
 Center     Atomic      Atomic             Coordinates (Angstroms)
 Number     Number       Type             X           Y           Z
 ---------------------------------------------------------------------
      1          6           0       -1.831126   -0.350991   -0.000415
      2          1           0       -1.816547   -1.441980   -0.000304
      3          6           0       -0.643756    0.315962   -0.000529
      4          1           0       -0.658604    1.406974   -0.000642
      5          6           0        0.643756   -0.315962   -0.000529
      6          1           0        0.658604   -1.406974   -0.000641
      7          6           0        1.831126    0.350991   -0.000415
      8          1           0        1.816547    1.441980   -0.000305
      9          6           0        3.120343   -0.281753   -0.000438
     10          1           0        3.133906   -1.372851   -0.000835
     11          6           0        4.304951    0.383528    0.000046
     12          1           0        4.293049    1.474524    0.000480
     13          6           0        5.601414   -0.253779    0.000060
     14          1           0        5.609740   -1.345300   -0.000368
     15          6           0        6.776973    0.405184    0.000552
     16          1           0        6.762123    1.496395    0.000978
     17          6           0       -3.120343    0.281753   -0.000438
     18          1           0       -3.133906    1.372851   -0.000834
     19          6           0       -4.304951   -0.383528    0.000046
     20          1           0       -4.293049   -1.474524    0.000480
     21          6           0       -5.601414    0.253779    0.000060
     22          1           0       -5.609740    1.345300   -0.000367
     23          6           0       -6.776973   -0.405184    0.000551
     24          1           0       -6.762123   -1.496395    0.000978
     25          6           0        8.128312   -0.241551    0.000557
     26          1           0        8.715186    0.058737   -0.879014
     27          1           0        8.714861    0.058083    0.880569
     28          1           0        8.052878   -1.334177    0.000138
     29          6           0       -8.128312    0.241551    0.000557
     30          1           0       -8.715186   -0.058736   -0.879014
     31          1           0       -8.714861   -0.058083    0.880569
     32          1           0       -8.052878    1.334177    0.000138
 ---------------------------------------------------------------------

 The electronic state is 1-A.
 Alpha  occ. eigenvalues --  -10.18988 -10.18988 -10.18822 -10.18814 -10.18806
 Alpha  occ. eigenvalues --  -10.18803 -10.18749 -10.18720 -10.18669 -10.18669
 Alpha  occ. eigenvalues --  -10.18469 -10.18469 -10.18384 -10.18384  -0.82365
 Alpha  occ. eigenvalues --   -0.81409  -0.79947  -0.77984  -0.75519  -0.72555
 Alpha  occ. eigenvalues --   -0.69103  -0.66534  -0.61450  -0.57096  -0.56110
 Alpha  occ. eigenvalues --   -0.55400  -0.54327  -0.54172  -0.47723  -0.47687
 Alpha  occ. eigenvalues --   -0.45548  -0.44485  -0.42633  -0.41349  -0.41147
 Alpha  occ. eigenvalues --   -0.41146  -0.39631  -0.38829  -0.37073  -0.36962
 Alpha  occ. eigenvalues --   -0.36223  -0.35696  -0.34990  -0.34515  -0.34431
 Alpha  occ. eigenvalues --   -0.34026  -0.32744  -0.30003  -0.26403  -0.22074
 Alpha  occ. eigenvalues --   -0.17353
 Alpha virt. eigenvalues --   -0.06571  -0.01044   0.04158   0.08256   0.09073
 Alpha virt. eigenvalues --    0.10344   0.10679   0.11536   0.11730   0.11753
 Alpha virt. eigenvalues --    0.12351   0.14837   0.14903   0.15133   0.15625

 Mulliken charges:
               1
     1  C   -0.124616
     2  H    0.120788
     3  C   -0.124573
     4  H    0.120742
     5  C   -0.124573
     6  H    0.120742
     7  C   -0.124616
     8  H    0.120788
     9  C   -0.125487
    10  H    0.120319
    11  C   -0.124145
    12  H    0.120453
    13  C   -0.099768
    14  H    0.117262
    15  C   -0.106155
    16  H    0.124407
    17  C   -0.125487
    18  H    0.120319
    19  C   -0.124145
    20  H    0.120453
    21  C   -0.099768
    22  H    0.117262
    23  C   -0.106155
    24  H    0.124407
    25  C   -0.490622
    26  H    0.158395
    27  H    0.158394
    28  H    0.154607
    29  C   -0.490622
    30  H    0.158395
    31  H    0.158394
    32  H    0.154607
 Sum of Mulliken charges =  -0.00000

 Dipole moment (field-independent basis, Debye):
    X=              0.0000    Y=              0.0000    Z=              0.0003  Tot=              0.0003
 Quadrupole moment (field-independent basis, Debye-Ang):
   XX=            -65.0185   YY=            -78.1462   ZZ=            -91.9956
   XY=              1.0364   XZ=              0.0000   YZ=              0.0000

 Normal termination of Gaussian 09 at Mon Jun  7 01:44:14 2021.
