 Gaussian 09, Revision E.01,
 Gaussian 09:  ES64L-G09RevE.01 30-Nov-2015

 -----------------------------------------------------
 #p opt b3lyp/6-31g(d) geom=connectivity int=ultrafine
 -----------------------------------------------------

 -------------------
 Title Card Required
 -------------------
 Symbolic Z-matrix:
 Charge =  0 Multiplicity = 1

 SCF Done:  E(RB3LYP) =  -783.312636242     A.U. after   26 cycles
 SCF Done:  E(RB3LYP) =  -783.371765185     A.U. after   16 cycles
 SCF Done:  E(RB3LYP) =  -783.330309317     A.U. after   15 cycles
 SCF Done:  E(RB3LYP) =  -783.409295081     A.U. after   12 cycles
 SCF Done:  E(RB3LYP) =  -783.415224651     A.U. after   14 cycles
 SCF Done:  E(RB3LYP) =  -783.420702430     A.U. after   15 cycles
 SCF Done:  E(RB3LYP) =  -783.379220329     A.U. after   16 cycles
 SCF Done:  E(RB3LYP) =  -783.421300385     A.U. after   11 cycles
 SCF Done:  E(RB3LYP) =  -783.414761806     A.U. after   15 cycles
 SCF Done:  E(RB3LYP) =  -783.425344912     A.U. after   13 cycles
 SCF Done:  E(RB3LYP) =  -783.430899611     A.U. after   13 cycles
 SCF Done:  E(RB3LYP) =  -783.431040709     A.U. after   12 cycles
 SCF Done:  E(RB3LYP) =  -783.430952690     A.U. after   12 cycles
 SCF Done:  E(RB3LYP) =  -783.431054748     A.U. after   11 cycles
 SCF Done:  E(RB3LYP) =  -783.431092178     A.U. after   12 cycles
 SCF Done:  E(RB3LYP) =  -783.431104622     A.U. after   11 cycles
 SCF Done:  E(RB3LYP) =  -783.431108417     A.U. after    9 cycles
 SCF Done:  E(RB3LYP) =  -783.431109980     A.U. after    9 cycles
 SCF Done:  E(RB3LYP) =  -783.431110119     A.U. after    8 cycles
 SCF Done:  E(RB3LYP) =  -783.431110205     A.U. after    8 cycles
 Optimization completed.
    -- Stationary point found.

                         Standard orientation:
 ---------------------------------------------------------------------
 Center     Atomic      Atomic             Coordinates (Angstroms)
 Number     Number       Type             X           Y           Z
 ---------------------------------------------------------------------
      1          6           0       -4.137170   -0.094079    0.181170
      2          6           0       -3.188383    0.921989    0.237023
      3          6           0       -1.830147    0.621546    0.075355
      4          6           0       -1.423307   -0.703626   -0.149341
      5          6           0       -2.385887   -1.717944   -0.219400
      6          6           0       -3.734180   -1.415561   -0.048810
      7          6           0       -0.827010    1.715425    0.108708
      8          6           0        0.018566   -1.064694   -0.331753
      9          6           0        1.035140   -0.020066   -0.075362
     10          6           0        0.617218    1.341513   -0.016411
     11          6           0        1.530539    2.387289   -0.071324
     12          1           0        1.159295    3.404539   -0.027468
     13          6           0        2.893547    2.102628   -0.196592
     14          6           0        3.333235    0.792640   -0.186058
     15          6           0        2.436086   -0.299817   -0.069762
     16          1           0       -5.190695    0.138616    0.309975
     17          1           0       -3.471238    1.956867    0.399515
     18          1           0       -2.052514   -2.732697   -0.408786
     19          1           0       -4.476050   -2.208232   -0.096601
     20          1           0        3.616383    2.910701   -0.269668
     21          1           0        4.400363    0.581748   -0.226859
     22          8           0        0.306041   -2.191873   -0.735872
     23          8           0       -1.169676    2.886632    0.240378
     24          7           0        2.995009   -1.551122    0.052011
     25          1           0        4.004321   -1.526720    0.007708
     26          6           0        2.477680   -2.643467    0.868697
     27          1           0        3.330061   -3.179666    1.297206
     28          1           0        1.865149   -2.256829    1.692816
     29          1           0        1.863383   -3.331199    0.285183
 ---------------------------------------------------------------------

 The electronic state is 1-A.
 Alpha  occ. eigenvalues --  -19.13577 -19.13088 -14.36283 -10.27494 -10.27396
 Alpha  occ. eigenvalues --  -10.25136 -10.21539 -10.20710 -10.20615 -10.20614
 Alpha  occ. eigenvalues --  -10.20549 -10.20468 -10.20448 -10.20370 -10.20366
 Alpha  occ. eigenvalues --  -10.20002 -10.19905 -10.19144  -1.03458  -1.03069
 Alpha  occ. eigenvalues --   -0.94687  -0.87141  -0.85612  -0.79462  -0.76079
 Alpha  occ. eigenvalues --   -0.75828  -0.75385  -0.69434  -0.66498  -0.65068
 Alpha  occ. eigenvalues --   -0.62616  -0.59814  -0.56822  -0.55346  -0.54171
 Alpha  occ. eigenvalues --   -0.50329  -0.48962  -0.47945  -0.46890  -0.46602
 Alpha  occ. eigenvalues --   -0.44819  -0.44501  -0.43469  -0.43311  -0.42297
 Alpha  occ. eigenvalues --   -0.42024  -0.41174  -0.39974  -0.38452  -0.38287
 Alpha  occ. eigenvalues --   -0.37589  -0.37139  -0.35841  -0.35042  -0.34747
 Alpha  occ. eigenvalues --   -0.30229  -0.26691  -0.25972  -0.25897  -0.25556
 Alpha  occ. eigenvalues --   -0.24571  -0.21037
 Alpha virt. eigenvalues --   -0.09076  -0.04414  -0.01574   0.00183   0.05921
 Alpha virt. eigenvalues --    0.06473   0.06860   0.09794   0.10635   0.12970
 Alpha virt. eigenvalues --    0.14451   0.15022   0.15533   0.16313   0.16903

 Mulliken charges:
               1
     1  C   -0.128475
     2  C   -0.170412
     3  C    0.048080
     4  C    0.053362
     5  C   -0.176258
     6  C   -0.124053
     7  C    0.342899
     8  C    0.339865
     9  C    0.013122
    10  C    0.020132
    11  C   -0.176853
    12  H    0.163468
    13  C   -0.129580
    14  C   -0.179679
    15  C    0.312745
    16  H    0.141535
    17  H    0.165055
    18  H    0.162612
    19  H    0.141110
    20  H    0.141955
    21  H    0.127479
    22  O   -0.500745
    23  O   -0.483949
    24  N   -0.622377
    25  H    0.323182
    26  C   -0.309452
    27  H    0.142832
    28  H    0.154722
    29  H    0.207677
 Sum of Mulliken charges =  -0.00000

 Dipole moment (field-independent basis, Debye):
    X=              2.0502    Y=             -1.6060    Z=              1.3084  Tot=              2.9145
 Quadrupole moment (field-independent basis, Debye-Ang):
   XX=            -74.8230   YY=           -105.8675   ZZ=           -105.0872
   XY=              3.5277   XZ=              1.7424   YZ=             -5.0015

 Normal termination of Gaussian 09 at Thu Jun  3 18:47:34 2021.
