 Gaussian 09, Revision E.01,
 Gaussian 09:  ES64L-G09RevE.01 30-Nov-2015

 -------------------------------------------------
 #p td(NStates=10) b3lyp/6-31+g(d) nosymm pop=full
 -------------------------------------------------

 -------------------
 Title Card Required
 -------------------
 Symbolic Z-matrix:
 Charge =  0 Multiplicity = 1

                          Input orientation:
 ---------------------------------------------------------------------
 Center     Atomic      Atomic             Coordinates (Angstroms)
 Number     Number       Type             X           Y           Z
 ---------------------------------------------------------------------
      1          6           0       -4.137170   -0.094079    0.181170
      2          6           0       -3.188383    0.921989    0.237023
      3          6           0       -1.830147    0.621546    0.075355
      4          6           0       -1.423308   -0.703626   -0.149341
      5          6           0       -2.385887   -1.717944   -0.219400
      6          6           0       -3.734180   -1.415561   -0.048810
      7          6           0       -0.827010    1.715425    0.108708
      8          6           0        0.018566   -1.064694   -0.331753
      9          6           0        1.035140   -0.020066   -0.075362
     10          6           0        0.617218    1.341513   -0.016411
     11          6           0        1.530539    2.387290   -0.071324
     12          1           0        1.159295    3.404539   -0.027468
     13          6           0        2.893547    2.102628   -0.196592
     14          6           0        3.333235    0.792640   -0.186058
     15          6           0        2.436086   -0.299817   -0.069762
     16          1           0       -5.190695    0.138616    0.309975
     17          1           0       -3.471239    1.956867    0.399515
     18          1           0       -2.052514   -2.732697   -0.408786
     19          1           0       -4.476050   -2.208232   -0.096601
     20          1           0        3.616383    2.910701   -0.269668
     21          1           0        4.400364    0.581748   -0.226859
     22          8           0        0.306041   -2.191874   -0.735872
     23          8           0       -1.169676    2.886632    0.240378
     24          7           0        2.995009   -1.551122    0.052011
     25          1           0        4.004322   -1.526720    0.007708
     26          6           0        2.477680   -2.643467    0.868698
     27          1           0        3.330061   -3.179666    1.297206
     28          1           0        1.865149   -2.256830    1.692816
     29          1           0        1.863383   -3.331200    0.285183
 ---------------------------------------------------------------------

 SCF Done:  E(RB3LYP) =  -783.458514495     A.U. after   17 cycles

 Excitation energies and oscillator strengths:

 Excited state symmetry could not be determined.
 Excited State   1:      Singlet-?Sym    2.7099 eV  457.52 nm  f=0.0853  <S**2>=0.000
      61 -> 63        -0.14027
      62 -> 63         0.68567
 This state for optimization and/or second-order correction.
 Total Energy, E(TD-HF/TD-KS) =  -783.358927182
 Copying the excited state density for this state as the 1-particle RhoCI density.

 Excited state symmetry could not be determined.
 Excited State   2:      Singlet-?Sym    3.0341 eV  408.64 nm  f=0.0148  <S**2>=0.000
      61 -> 63         0.66357
      62 -> 63         0.14768

 Excited state symmetry could not be determined.
 Excited State   3:      Singlet-?Sym    3.2439 eV  382.20 nm  f=0.0003  <S**2>=0.000
      58 -> 63         0.47757
      60 -> 63        -0.47119
      61 -> 63         0.11433
      61 -> 64         0.15930

 Excited state symmetry could not be determined.
 Excited State   4:      Singlet-?Sym    3.7184 eV  333.43 nm  f=0.0020  <S**2>=0.000
      58 -> 63         0.35251
      59 -> 63        -0.34802
      60 -> 63         0.41796
      62 -> 64        -0.26903

 Excited state symmetry could not be determined.
 Excited State   5:      Singlet-?Sym    3.8924 eV  318.53 nm  f=0.0177  <S**2>=0.000
      58 -> 63         0.33961
      59 -> 63         0.44015
      60 -> 63         0.26676
      62 -> 64         0.29868

 Excited state symmetry could not be determined.
 Excited State   6:      Singlet-?Sym    3.9438 eV  314.38 nm  f=0.0799  <S**2>=0.000
      59 -> 63        -0.38977
      62 -> 64         0.57135

 Excited state symmetry could not be determined.
 Excited State   7:      Singlet-?Sym    4.4617 eV  277.88 nm  f=0.1145  <S**2>=0.000
      56 -> 63        -0.10175
      57 -> 63         0.63319
      61 -> 64        -0.20272
      62 -> 66         0.11805

 Excited state symmetry could not be determined.
 Excited State   8:      Singlet-?Sym    4.4847 eV  276.46 nm  f=0.0094  <S**2>=0.000
      57 -> 63         0.19143
      58 -> 63        -0.11379
      58 -> 64         0.10976
      61 -> 64         0.63824

 Excited state symmetry could not be determined.
 Excited State   9:      Singlet-?Sym    4.5496 eV  272.52 nm  f=0.0038  <S**2>=0.000
      62 -> 65         0.67772

 Excited state symmetry could not be determined.
 Excited State  10:      Singlet-?Sym    4.7788 eV  259.45 nm  f=0.0069  <S**2>=0.000
      56 -> 63        -0.10568
      58 -> 64        -0.44282
      60 -> 64         0.50801

 Alpha  occ. eigenvalues --  -19.14946 -19.14490 -14.37413 -10.28696 -10.28598
 Alpha  occ. eigenvalues --  -10.26228 -10.22223 -10.21874 -10.21787 -10.21750
 Alpha  occ. eigenvalues --  -10.21589 -10.21578 -10.21462 -10.21428 -10.21355
 Alpha  occ. eigenvalues --  -10.21003 -10.20907 -10.20200  -1.04838  -1.04477
 Alpha  occ. eigenvalues --   -0.95769  -0.88298  -0.86756  -0.80591  -0.77162
 Alpha  occ. eigenvalues --   -0.76887  -0.76495  -0.70403  -0.67578  -0.66135
 Alpha  occ. eigenvalues --   -0.63683  -0.60825  -0.57881  -0.56377  -0.55255
 Alpha  occ. eigenvalues --   -0.51339  -0.50077  -0.48939  -0.47967  -0.47637
 Alpha  occ. eigenvalues --   -0.45825  -0.45430  -0.44495  -0.44391  -0.43494
 Alpha  occ. eigenvalues --   -0.43131  -0.42284  -0.40954  -0.39462  -0.39284
 Alpha  occ. eigenvalues --   -0.38618  -0.38175  -0.36920  -0.36077  -0.35845
 Alpha  occ. eigenvalues --   -0.31292  -0.27913  -0.27165  -0.26988  -0.26777
 Alpha  occ. eigenvalues --   -0.25892  -0.22160
 Alpha virt. eigenvalues --   -0.10437  -0.05983  -0.03054  -0.01498  -0.00792
 Alpha virt. eigenvalues --    0.00638   0.01345   0.01847   0.02706   0.03303
 Alpha virt. eigenvalues --    0.03716   0.03920   0.04413   0.04798   0.05128

 Mulliken charges:
               1
     1  C   -0.484738
     2  C   -0.014573
     3  C    0.385426
     4  C    0.445400
     5  C   -0.203531
     6  C   -0.391041
     7  C    0.062658
     8  C   -0.283781
     9  C    0.674802
    10  C    0.208463
    11  C   -0.275371
    12  H    0.223581
    13  C   -0.360148
    14  C   -0.848855
    15  C    0.489092
    16  H    0.189302
    17  H    0.224926
    18  H    0.222512
    19  H    0.189568
    20  H    0.190099
    21  H    0.170226
    22  O   -0.469852
    23  O   -0.486945
    24  N   -0.457931
    25  H    0.398836
    26  C   -0.453939
    27  H    0.187934
    28  H    0.212645
    29  H    0.255233
 Sum of Mulliken charges =  -0.00000

 Dipole moment (field-independent basis, Debye):
    X=              2.1179    Y=             -1.6781    Z=              1.3299  Tot=              3.0117
 Quadrupole moment (field-independent basis, Debye-Ang):
   XX=            -76.4355   YY=           -109.3219   ZZ=           -108.6579
   XY=              4.1024   XZ=              1.8389   YZ=             -5.4220

 Normal termination of Gaussian 09 at Thu Jun  3 22:17:10 2021.
