 Gaussian 09, Revision E.01,
 Gaussian 09:  ES64L-G09RevE.01 30-Nov-2015

 -----------------------------------------------
 #p td b3lyp/6-31g(d) geom=connectivity pop=full
 -----------------------------------------------

 -------------------
 Title Card Required
 -------------------
 Symbolic Z-matrix:
 Charge =  0 Multiplicity = 1

                         Standard orientation:
 ---------------------------------------------------------------------
 Center     Atomic      Atomic             Coordinates (Angstroms)
 Number     Number       Type             X           Y           Z
 ---------------------------------------------------------------------
      1          6           0        3.065595   -0.380462    0.000003
      2          1           0        3.048434   -1.471412   -0.000014
      3          6           0        1.884989    0.290440    0.000035
      4          1           0        1.903753    1.381480   -0.000059
      5          6           0        0.591229   -0.336124   -0.000017
      6          1           0        0.571636   -1.427075   -0.000092
      7          6           0       -0.591229    0.336124    0.000017
      8          1           0       -0.571636    1.427075    0.000092
      9          6           0       -1.884989   -0.290440   -0.000035
     10          1           0       -1.903753   -1.381480    0.000059
     11          6           0       -3.065595    0.380462   -0.000003
     12          1           0       -3.048434    1.471412    0.000014
     13          6           0       -4.365762   -0.250468    0.000102
     14          1           0       -4.379357   -1.341956    0.000063
     15          6           0       -5.537880    0.414075    0.000002
     16          1           0       -5.517790    1.505218   -0.000022
     17          6           0        4.365762    0.250468   -0.000102
     18          1           0        4.379357    1.341956   -0.000063
     19          6           0        5.537880   -0.414075   -0.000002
     20          1           0        5.517790   -1.505218    0.000022
     21          6           0        6.892465    0.226077    0.000034
     22          1           0        7.477708   -0.076383   -0.879872
     23          1           0        6.822282    1.319075    0.000312
     24          1           0        7.477811   -0.076789    0.879749
     25          6           0       -6.892465   -0.226077   -0.000034
     26          1           0       -7.477708    0.076383    0.879872
     27          1           0       -7.477811    0.076789   -0.879749
     28          1           0       -6.822282   -1.319075   -0.000312
 ---------------------------------------------------------------------

 SCF Done:  E(RB3LYP) =  -466.853465668     A.U. after   13 cycles

 Excitation energies and oscillator strengths:

 Excited State   1:      Singlet-AU     3.5092 eV  353.31 nm  f=2.1220  <S**2>=0.000
      44 -> 45         0.71500
      44 <- 45        -0.12572
 This state for optimization and/or second-order correction.
 Total Energy, E(TD-HF/TD-KS) =  -466.724505947
 Copying the excited state density for this state as the 1-particle RhoCI density.

 Excited State   2:      Singlet-AG     4.1967 eV  295.43 nm  f=0.0000  <S**2>=0.000
      43 -> 45         0.54833
      44 -> 46         0.44206

 Excited State   3:      Singlet-AU     5.4753 eV  226.44 nm  f=0.0027  <S**2>=0.000
      42 -> 45         0.60295
      44 -> 47        -0.35432

 The electronic state is 1-AG.
 Alpha  occ. eigenvalues --  -10.18906 -10.18906 -10.18720 -10.18713 -10.18708
 Alpha  occ. eigenvalues --  -10.18647 -10.18591 -10.18587 -10.18399 -10.18399
 Alpha  occ. eigenvalues --  -10.18331 -10.18331  -0.82153  -0.80910  -0.79007
 Alpha  occ. eigenvalues --   -0.76447  -0.73226  -0.69357  -0.66319  -0.60519
 Alpha  occ. eigenvalues --   -0.55953  -0.55851  -0.54820  -0.54019  -0.47826
 Alpha  occ. eigenvalues --   -0.46751  -0.45184  -0.43397  -0.41093  -0.41091
 Alpha  occ. eigenvalues --   -0.40963  -0.40644  -0.38054  -0.37472  -0.36211
 Alpha  occ. eigenvalues --   -0.36190  -0.35159  -0.34459  -0.34159  -0.33927
 Alpha  occ. eigenvalues --   -0.31708  -0.27990  -0.23220  -0.17802
 Alpha virt. eigenvalues --   -0.05821   0.00577   0.06252   0.09272   0.10039
 Alpha virt. eigenvalues --    0.10915   0.11519   0.11775   0.11814   0.13467
 Alpha virt. eigenvalues --    0.15137   0.15213   0.16126   0.16241   0.16395

 Mulliken charges:
               1
     1  C   -0.124427
     2  H    0.119953
     3  C   -0.125544
     4  H    0.119857
     5  C   -0.124718
     6  H    0.120139
     7  C   -0.124718
     8  H    0.120139
     9  C   -0.125544
    10  H    0.119857
    11  C   -0.124427
    12  H    0.119953
    13  C   -0.099730
    14  H    0.116869
    15  C   -0.106437
    16  H    0.123992
    17  C   -0.099730
    18  H    0.116869
    19  C   -0.106437
    20  H    0.123992
    21  C   -0.490488
    22  H    0.158084
    23  H    0.154377
    24  H    0.158073
    25  C   -0.490488
    26  H    0.158084
    27  H    0.158073
    28  H    0.154377
 Sum of Mulliken charges =  -0.00000

 Dipole moment (field-independent basis, Debye):
    X=              0.0000    Y=             -0.0000    Z=             -0.0000  Tot=              0.0000
 Quadrupole moment (field-independent basis, Debye-Ang):
   XX=            -58.1128   YY=            -67.6066   ZZ=            -79.1063
   XY=             -0.8980   XZ=              0.0000   YZ=              0.0000

 Normal termination of Gaussian 09 at Mon Jun  7 10:27:37 2021.
