 Gaussian 09, Revision E.01,
 Gaussian 09:  ES64L-G09RevE.01 30-Nov-2015

 -----------------------------------------------------
 #p opt b3lyp/6-31g(d) geom=connectivity int=ultrafine
 -----------------------------------------------------

 -------------------
 Title Card Required
 -------------------
 Symbolic Z-matrix:
 Charge =  0 Multiplicity = 1

 SCF Done:  E(RB3LYP) =  -466.816356644     A.U. after   13 cycles
 SCF Done:  E(RB3LYP) =  -466.843243019     A.U. after   12 cycles
 SCF Done:  E(RB3LYP) =  -466.851352003     A.U. after   12 cycles
 SCF Done:  E(RB3LYP) =  -466.852696178     A.U. after   11 cycles
 SCF Done:  E(RB3LYP) =  -466.853127921     A.U. after   13 cycles
 SCF Done:  E(RB3LYP) =  -466.853375666     A.U. after   11 cycles
 SCF Done:  E(RB3LYP) =  -466.853431554     A.U. after   10 cycles
 SCF Done:  E(RB3LYP) =  -466.853442739     A.U. after    9 cycles
 SCF Done:  E(RB3LYP) =  -466.853442767     A.U. after    8 cycles
 SCF Done:  E(RB3LYP) =  -466.853443497     A.U. after    8 cycles
 Optimization completed.
    -- Stationary point found.

                         Standard orientation:
 ---------------------------------------------------------------------
 Center     Atomic      Atomic             Coordinates (Angstroms)
 Number     Number       Type             X           Y           Z
 ---------------------------------------------------------------------
      1          6           0        3.065595   -0.380462    0.000003
      2          1           0        3.048434   -1.471412   -0.000014
      3          6           0        1.884988    0.290440    0.000035
      4          1           0        1.903753    1.381479   -0.000059
      5          6           0        0.591228   -0.336124   -0.000017
      6          1           0        0.571636   -1.427074   -0.000092
      7          6           0       -0.591228    0.336124    0.000016
      8          1           0       -0.571636    1.427074    0.000092
      9          6           0       -1.884988   -0.290440   -0.000035
     10          1           0       -1.903753   -1.381479    0.000058
     11          6           0       -3.065595    0.380462   -0.000003
     12          1           0       -3.048434    1.471412    0.000014
     13          6           0       -4.365761   -0.250468    0.000102
     14          1           0       -4.379356   -1.341956    0.000063
     15          6           0       -5.537880    0.414075    0.000002
     16          1           0       -5.517789    1.505218   -0.000022
     17          6           0        4.365761    0.250468   -0.000102
     18          1           0        4.379356    1.341956   -0.000063
     19          6           0        5.537880   -0.414075   -0.000002
     20          1           0        5.517789   -1.505218    0.000023
     21          6           0        6.892464    0.226077    0.000034
     22          1           0        7.477707   -0.076383   -0.879872
     23          1           0        6.822281    1.319075    0.000312
     24          1           0        7.477811   -0.076789    0.879749
     25          6           0       -6.892464   -0.226077   -0.000034
     26          1           0       -7.477707    0.076382    0.879873
     27          1           0       -7.477811    0.076789   -0.879748
     28          1           0       -6.822281   -1.319075   -0.000312
 ---------------------------------------------------------------------

 The electronic state is 1-A.
 Alpha  occ. eigenvalues --  -10.18906 -10.18906 -10.18720 -10.18713 -10.18707
 Alpha  occ. eigenvalues --  -10.18647 -10.18591 -10.18587 -10.18399 -10.18399
 Alpha  occ. eigenvalues --  -10.18331 -10.18331  -0.82153  -0.80910  -0.79007
 Alpha  occ. eigenvalues --   -0.76447  -0.73225  -0.69357  -0.66319  -0.60519
 Alpha  occ. eigenvalues --   -0.55953  -0.55851  -0.54820  -0.54019  -0.47826
 Alpha  occ. eigenvalues --   -0.46751  -0.45184  -0.43397  -0.41093  -0.41091
 Alpha  occ. eigenvalues --   -0.40963  -0.40644  -0.38054  -0.37472  -0.36211
 Alpha  occ. eigenvalues --   -0.36190  -0.35158  -0.34459  -0.34159  -0.33927
 Alpha  occ. eigenvalues --   -0.31707  -0.27989  -0.23220  -0.17802
 Alpha virt. eigenvalues --   -0.05821   0.00577   0.06252   0.09272   0.10039
 Alpha virt. eigenvalues --    0.10916   0.11520   0.11775   0.11814   0.13468
 Alpha virt. eigenvalues --    0.15137   0.15213   0.16127   0.16241   0.16396

 Mulliken charges:
               1
     1  C   -0.124425
     2  H    0.119952
     3  C   -0.125542
     4  H    0.119856
     5  C   -0.124715
     6  H    0.120139
     7  C   -0.124715
     8  H    0.120139
     9  C   -0.125542
    10  H    0.119856
    11  C   -0.124425
    12  H    0.119952
    13  C   -0.099719
    14  H    0.116867
    15  C   -0.106456
    16  H    0.123992
    17  C   -0.099719
    18  H    0.116867
    19  C   -0.106456
    20  H    0.123992
    21  C   -0.490474
    22  H    0.158080
    23  H    0.154376
    24  H    0.158069
    25  C   -0.490474
    26  H    0.158080
    27  H    0.158069
    28  H    0.154376
 Sum of Mulliken charges =  -0.00000

 Dipole moment (field-independent basis, Debye):
    X=              0.0000    Y=             -0.0000    Z=              0.0000  Tot=              0.0000
 Quadrupole moment (field-independent basis, Debye-Ang):
   XX=            -58.1150   YY=            -67.6067   ZZ=            -79.1060
   XY=             -0.8976   XZ=              0.0000   YZ=              0.0000

 Normal termination of Gaussian 09 at Mon Jun  7 01:04:15 2021.
